/*--------------------------------*- C++ -*----------------------------------*\
  =========                 |
  \\      /  F ield         | OpenFOAM: The Open Source CFD Toolbox
   \\    /   O peration     | Website:  https://openfoam.org
    \\  /    A nd           | Version:  8
     \\/     M anipulation  |
\*---------------------------------------------------------------------------*/
FoamFile
{
    version     2.0;
    format      ascii;
    class       volVectorField;
    location    "0.5";
    object      U;
}
// * * * * * * * * * * * * * * * * * * * * * * * * * * * * * * * * * * * * * //

dimensions      [0 1 -1 0 0 0 0];

internalField   nonuniform List<vector> 
400
(
(0.000958323 -0.000959723 0)
(0.000360135 0.000515469 0)
(-0.0050144 0.00226253 0)
(-0.0141203 0.00344836 0)
(-0.0253945 0.00403457 0)
(-0.0373951 0.00411533 0)
(-0.0488831 0.00378534 0)
(-0.0588147 0.0031167 0)
(-0.0663126 0.00216278 0)
(-0.0706592 0.000976705 0)
(-0.0713316 -0.000367659 0)
(-0.0680762 -0.00176052 0)
(-0.0610033 -0.00305119 0)
(-0.0506708 -0.00405712 0)
(-0.0381253 -0.00458712 0)
(-0.0248655 -0.00447778 0)
(-0.0127006 -0.00363958 0)
(-0.00348686 -0.00210807 0)
(0.00126912 -0.000161788 0)
(0.00119036 0.00115426 0)
(-0.000453522 -0.000456217 0)
(-0.00692683 0.00688454 0)
(-0.0234671 0.0144924 0)
(-0.0473859 0.0197768 0)
(-0.0755392 0.0223857 0)
(-0.104949 0.0225235 0)
(-0.132835 0.0205144 0)
(-0.156738 0.0166798 0)
(-0.174573 0.0113269 0)
(-0.184684 0.00480065 0)
(-0.185932 -0.00244786 0)
(-0.177853 -0.00981356 0)
(-0.160823 -0.0165321 0)
(-0.136197 -0.0217315 0)
(-0.106352 -0.024546 0)
(-0.0745626 -0.0242866 0)
(-0.0446517 -0.0206508 0)
(-0.0204025 -0.0139439 0)
(-0.00495174 -0.00543169 0)
(0.000118791 0.00141346 0)
(-0.00235006 0.00495497 0)
(-0.0155913 0.0236708 0)
(-0.0433951 0.0409661 0)
(-0.080745 0.0528583 0)
(-0.123131 0.058542 0)
(-0.166593 0.0582812 0)
(-0.207366 0.0527037 0)
(-0.24207 0.0425421 0)
(-0.267833 0.0285874 0)
(-0.282379 0.0117703 0)
(-0.284172 -0.00672085 0)
(-0.272601 -0.0253594 0)
(-0.248192 -0.0422877 0)
(-0.212767 -0.0554458 0)
(-0.169502 -0.0628351 0)
(-0.122779 -0.0629075 0)
(-0.077734 -0.0550391 0)
(-0.0395174 -0.0400026 0)
(-0.0128624 -0.0205089 0)
(-0.00149585 -0.00259046 0)
(-0.00404202 0.0150511 0)
(-0.0237241 0.0501539 0)
(-0.0623903 0.0797514 0)
(-0.11233 0.0994325 0)
(-0.167581 0.108297 0)
(-0.223372 0.106826 0)
(-0.275249 0.0960507 0)
(-0.319226 0.0772158 0)
(-0.351911 0.0517197 0)
(-0.370606 0.0212306 0)
(-0.37345 -0.0121441 0)
(-0.359631 -0.0457428 0)
(-0.329629 -0.0763668 0)
(-0.285425 -0.100486 0)
(-0.230624 -0.114667 0)
(-0.170367 -0.116207 0)
(-0.110887 -0.103916 0)
(-0.0587265 -0.0788768 0)
(-0.0205825 -0.0451167 0)
(-0.00294096 -0.0108187 0)
(-0.00550955 0.0293091 0)
(-0.031116 0.0855753 0)
(-0.0800127 0.129797 0)
(-0.141776 0.158041 0)
(-0.208959 0.169861 0)
(-0.276053 0.166264 0)
(-0.338088 0.148851 0)
(-0.39067 0.119473 0)
(-0.43007 0.0801964 0)
(-0.453271 0.033472 0)
(-0.458089 -0.0176243 0)
(-0.443397 -0.0692243 0)
(-0.409394 -0.116667 0)
(-0.357915 -0.15475 0)
(-0.292678 -0.178299 0)
(-0.219358 -0.183058 0)
(-0.145249 -0.166821 0)
(-0.0785111 -0.130546 0)
(-0.0282727 -0.0792375 0)
(-0.00425926 -0.0229871 0)
(-0.00681396 0.0473055 0)
(-0.0378599 0.129328 0)
(-0.0962876 0.190484 0)
(-0.169088 0.228038 0)
(-0.247377 0.242574 0)
(-0.324985 0.236005 0)
(-0.396557 0.210723 0)
(-0.457455 0.169283 0)
(-0.503751 0.114435 0)
(-0.532182 0.0493813 0)
(-0.540223 -0.0218896 0)
(-0.526286 -0.094338 0)
(-0.490046 -0.161802 0)
(-0.432855 -0.217236 0)
(-0.358195 -0.25336 0)
(-0.272023 -0.2638 0)
(-0.182657 -0.244638 0)
(-0.10014 -0.196034 0)
(-0.0365968 -0.123523 0)
(-0.00563547 -0.0391447 0)
(-0.00800469 0.0687108 0)
(-0.0440633 0.180795 0)
(-0.111294 0.261081 0)
(-0.194253 0.308649 0)
(-0.282704 0.325685 0)
(-0.369927 0.315431 0)
(-0.450334 0.28132 0)
(-0.519216 0.22671 0)
(-0.572596 0.155013 0)
(-0.607061 0.0700713 0)
(-0.619748 -0.0233716 0)
(-0.608496 -0.119258 0)
(-0.5722 -0.209994 0)
(-0.511353 -0.286576 0)
(-0.428761 -0.339232 0)
(-0.330259 -0.358752 0)
(-0.224997 -0.338523 0)
(-0.125093 -0.276897 0)
(-0.0463547 -0.179278 0)
(-0.00728022 -0.0597813 0)
(-0.00911546 0.0932594 0)
(-0.0498053 0.23936 0)
(-0.125067 0.340735 0)
(-0.217111 0.398862 0)
(-0.314454 0.418135 0)
(-0.40997 0.403588 0)
(-0.498041 0.359973 0)
(-0.574108 0.291552 0)
(-0.634355 0.202341 0)
(-0.675387 0.0966416 0)
(-0.69408 -0.020312 0)
(-0.687659 -0.141733 0)
(-0.654028 -0.25882 0)
(-0.592419 -0.360632 0)
(-0.504386 -0.434567 0)
(-0.395002 -0.467762 0)
(-0.273755 -0.449608 0)
(-0.154797 -0.375147 0)
(-0.0583863 -0.248512 0)
(-0.00941976 -0.0858564 0)
(-0.0101797 0.12073 0)
(-0.0551727 0.304417 0)
(-0.137632 0.428445 0)
(-0.237394 0.497331 0)
(-0.341814 0.518363 0)
(-0.443559 0.498905 0)
(-0.537253 0.445345 0)
(-0.618791 0.362956 0)
(-0.684821 0.256282 0)
(-0.732236 0.129845 0)
(-0.757861 -0.0109972 0)
(-0.758391 -0.159172 0)
(-0.730642 -0.305097 0)
(-0.672215 -0.436152 0)
(-0.582726 -0.536767 0)
(-0.465547 -0.589619 0)
(-0.329543 -0.57851 0)
(-0.190411 -0.492974 0)
(-0.0735462 -0.333881 0)
(-0.0123115 -0.118811 0)
(-0.0112657 0.15097 0)
(-0.0603633 0.375384 0)
(-0.149158 0.523017 0)
(-0.254881 0.602211 0)
(-0.363783 0.62403 0)
(-0.468601 0.598819 0)
(-0.56458 0.534986 0)
(-0.648478 0.43894 0)
(-0.717821 0.315663 0)
(-0.770191 0.169625 0)
(-0.802728 0.00585937 0)
(-0.811879 -0.168871 0)
(-0.793464 -0.344879 0)
(-0.743226 -0.508476 0)
(-0.658148 -0.641365 0)
(-0.538681 -0.721223 0)
(-0.391502 -0.724494 0)
(-0.232581 -0.632185 0)
(-0.0927098 -0.438498 0)
(-0.0162802 -0.160597 0)
(-0.0125389 0.184 0)
(-0.0658647 0.451829 0)
(-0.160203 0.623039 0)
(-0.269626 0.710978 0)
(-0.379344 0.731701 0)
(-0.482595 0.699376 0)
(-0.575776 0.624873 0)
(-0.657043 0.515878 0)
(-0.725322 0.377728 0)
(-0.779411 0.214553 0)
(-0.817294 0.0305771 0)
(-0.835675 -0.168457 0)
(-0.829757 -0.373691 0)
(-0.793493 -0.571414 0)
(-0.72072 -0.741461 0)
(-0.607613 -0.856579 0)
(-0.456457 -0.884294 0)
(-0.281054 -0.793264 0)
(-0.116775 -0.565579 0)
(-0.0217772 -0.213742 0)
(-0.0143699 0.220273 0)
(-0.0727228 0.533703 0)
(-0.172011 0.726887 0)
(-0.282168 0.820192 0)
(-0.387553 0.836471 0)
(-0.482637 0.794784 0)
(-0.565733 0.70894 0)
(-0.637073 0.588023 0)
(-0.69759 0.437619 0)
(-0.747887 0.26125 0)
(-0.78743 0.061867 0)
(-0.813891 -0.156547 0)
(-0.822573 -0.387073 0)
(-0.806162 -0.617475 0)
(-0.755301 -0.827391 0)
(-0.660751 -0.985786 0)
(-0.517737 -1.05058 0)
(-0.333999 -0.973948 0)
(-0.146613 -0.717814 0)
(-0.0294731 -0.281479 0)
(-0.0175247 0.261161 0)
(-0.0829291 0.621708 0)
(-0.186788 0.832624 0)
(-0.293487 0.925079 0)
(-0.387198 0.931443 0)
(-0.464925 0.876931 0)
(-0.528012 0.778682 0)
(-0.579578 0.647161 0)
(-0.62317 0.48803 0)
(-0.661732 0.303954 0)
(-0.696827 0.0962409 0)
(-0.727881 -0.133517 0)
(-0.751307 -0.381446 0)
(-0.759614 -0.638589 0)
(-0.741003 -0.886904 0)
(-0.680456 -1.09427 0)
(-0.563602 -1.21019 0)
(-0.386855 -1.16709 0)
(-0.182854 -0.896211 0)
(-0.0403839 -0.367963 0)
(-0.0234926 0.309829 0)
(-0.0999079 0.717652 0)
(-0.207621 0.937502 0)
(-0.304121 1.01865 0)
(-0.375313 1.00689 0)
(-0.423049 0.934802 0)
(-0.453239 0.822871 0)
(-0.472749 0.682572 0)
(-0.488184 0.51927 0)
(-0.505111 0.334509 0)
(-0.527535 0.127744 0)
(-0.557267 -0.102167 0)
(-0.592916 -0.355205 0)
(-0.628408 -0.62742 0)
(-0.651329 -0.906199 0)
(-0.642014 -1.16275 0)
(-0.575224 -1.34243 0)
(-0.430327 -1.35773 0)
(-0.225172 -1.0979 0)
(-0.0559581 -0.47843 0)
(-0.0349515 0.372644 0)
(-0.1288 0.824349 0)
(-0.237085 1.03643 0)
(-0.311007 1.08993 0)
(-0.343047 1.04896 0)
(-0.343682 0.953914 0)
(-0.325208 0.827656 0)
(-0.298829 0.681605 0)
(-0.274168 0.520084 0)
(-0.259132 0.343167 0)
(-0.259935 0.148439 0)
(-0.280884 -0.0678658 0)
(-0.323553 -0.309722 0)
(-0.38505 -0.579238 0)
(-0.455217 -0.87217 0)
(-0.513058 -1.16881 0)
(-0.524129 -1.41842 0)
(-0.446848 -1.51963 0)
(-0.270081 -1.31221 0)
(-0.0777138 -0.618883 0)
(-0.0559232 0.461447 0)
(-0.174993 0.943744 0)
(-0.271544 1.11798 0)
(-0.298648 1.12059 0)
(-0.265945 1.03795 0)
(-0.197556 0.916146 0)
(-0.113299 0.777582 0)
(-0.0282225 0.631453 0)
(0.0461406 0.479775 0)
(0.100789 0.320716 0)
(0.128408 0.150185 0)
(0.12294 -0.0375534 0)
(0.0798814 -0.249625 0)
(-0.00232003 -0.493828 0)
(-0.119069 -0.77578 0)
(-0.253672 -1.09042 0)
(-0.368928 -1.40246 0)
(-0.404311 -1.61214 0)
(-0.305037 -1.51497 0)
(-0.104994 -0.795676 0)
(-0.0894177 0.598207 0)
(-0.235405 1.06934 0)
(-0.282825 1.15332 0)
(-0.217304 1.07749 0)
(-0.0841173 0.945481 0)
(0.0763731 0.8003 0)
(0.239209 0.658092 0)
(0.388655 0.522547 0)
(0.514218 0.391895 0)
(0.608302 0.26209 0)
(0.664543 0.127868 0)
(0.676794 -0.0172684 0)
(0.638771 -0.181694 0)
(0.544507 -0.37656 0)
(0.390637 -0.615776 0)
(0.182833 -0.911405 0)
(-0.0512258 -1.25579 0)
(-0.245996 -1.57757 0)
(-0.295946 -1.65935 0)
(-0.127314 -1.01521 0)
(-0.122127 0.813859 0)
(-0.264432 1.16056 0)
(-0.167455 1.07376 0)
(0.0634697 0.90389 0)
(0.331084 0.735759 0)
(0.591728 0.588087 0)
(0.826653 0.46278 0)
(1.02678 0.355466 0)
(1.18755 0.260207 0)
(1.3061 0.171306 0)
(1.37945 0.0834002 0)
(1.40343 -0.0091674 0)
(1.37196 -0.113464 0)
(1.27639 -0.239922 0)
(1.1057 -0.404973 0)
(0.849926 -0.63291 0)
(0.510894 -0.948973 0)
(0.126434 -1.34252 0)
(-0.162279 -1.65174 0)
(-0.100897 -1.25513 0)
(-0.0208188 1.03082 0)
(-0.0260993 1.07382 0)
(0.377627 0.786817 0)
(0.82743 0.567441 0)
(1.20893 0.414506 0)
(1.52127 0.304587 0)
(1.77392 0.224093 0)
(1.97344 0.163021 0)
(2.12506 0.113854 0)
(2.23245 0.0712735 0)
(2.29707 0.0313724 0)
(2.31791 -0.00923166 0)
(2.29098 -0.0544392 0)
(2.2082 -0.110179 0)
(2.05533 -0.187467 0)
(1.80971 -0.308359 0)
(1.43725 -0.514428 0)
(0.899311 -0.861237 0)
(0.306214 -1.31743 0)
(0.144168 -1.30744 0)
(1.14952 0.564115 0)
(1.47994 0.498955 0)
(2.07227 0.313179 0)
(2.53163 0.193957 0)
(2.82504 0.123512 0)
(3.02214 0.0800998 0)
(3.16225 0.0526051 0)
(3.26259 0.034509 0)
(3.33263 0.0217197 0)
(3.37802 0.0117613 0)
(3.40165 0.00311926 0)
(3.40422 -0.00525111 0)
(3.38448 -0.0144066 0)
(3.33861 -0.0258331 0)
(3.25812 -0.0425572 0)
(3.12508 -0.0718067 0)
(2.89743 -0.13149 0)
(2.46772 -0.260526 0)
(1.77712 -0.499213 0)
(1.29414 -0.61239 0)
)
;

boundaryField
{
    movingWall
    {
        type            fixedValue;
        value           uniform (4 0 0);
    }
    fixedWalls
    {
        type            noSlip;
    }
    frontAndBack
    {
        type            empty;
    }
}


// ************************************************************************* //
