/*--------------------------------*- C++ -*----------------------------------*\
  =========                 |
  \\      /  F ield         | OpenFOAM: The Open Source CFD Toolbox
   \\    /   O peration     | Website:  https://openfoam.org
    \\  /    A nd           | Version:  8
     \\/     M anipulation  |
\*---------------------------------------------------------------------------*/
FoamFile
{
    version     2.0;
    format      ascii;
    class       volScalarField;
    location    "0.1";
    object      p;
}
// * * * * * * * * * * * * * * * * * * * * * * * * * * * * * * * * * * * * * //

dimensions      [0 2 -2 0 0 0 0];

internalField   nonuniform List<scalar> 
400
(
-2.93812e-08
-0.00687862
-0.0152597
-0.021615
-0.0239069
-0.021236
-0.0135352
-0.00132063
0.014485
0.0326682
0.0518108
0.0703737
0.0867983
0.0996409
0.107744
0.110448
0.107838
0.101006
0.0922931
0.0854227
0.00682006
-0.000257449
-0.00680953
-0.0111522
-0.0123194
-0.00968496
-0.00316259
0.00688322
0.01976
0.0345277
0.0500674
0.0651562
0.0785583
0.0891413
0.0960153
0.098692
0.0972644
0.0925114
0.0856681
0.0786298
0.0157087
0.00591087
-0.00116466
-0.00514244
-0.00606945
-0.00362497
0.00219036
0.0110335
0.0223151
0.0352463
0.0488811
0.0621729
0.0740504
0.0835158
0.0897596
0.0922908
0.0910962
0.0866456
0.0791959
0.0694122
0.0236752
0.0101593
0.00138158
-0.00314796
-0.00432073
-0.00208867
0.00342095
0.0118158
0.0225285
0.0348356
0.0478721
0.0606659
0.0721956
0.0814733
0.087643
0.0901001
0.0886652
0.0835387
0.0741986
0.0605662
0.0287051
0.0112951
0.000490336
-0.00484959
-0.00634339
-0.00417946
0.00138546
0.00988657
0.0207441
0.0332583
0.0465974
0.0598094
0.0718605
0.0817027
0.08836
0.0910488
0.0893869
0.0833246
0.0716759
0.0538599
0.0293036
0.00797764
-0.00492406
-0.0110772
-0.0127595
-0.0103732
-0.00430276
0.0049033
0.0166329
0.0301846
0.044729
0.0592971
0.0727972
0.0840663
0.0919455
0.0954087
0.0938228
0.0868761
0.0727579
0.0505126
0.024174
-0.00110508
-0.0160521
-0.0228425
-0.0244086
-0.0213679
-0.0142371
-0.00365687
0.00971897
0.0251764
0.0418749
0.0588086
0.0747993
0.0885256
0.0985859
0.103638
0.102723
0.0952068
0.0785972
0.0515892
0.0119795
-0.0173415
-0.0341816
-0.0412562
-0.0422194
-0.0379375
-0.029078
-0.0163807
-0.000540584
0.0177223
0.037564
0.0579461
0.0775963
0.0950077
0.10848
0.116266
0.116972
0.109515
0.0905419
0.0583204
-0.00883321
-0.0423458
-0.0608088
-0.0675997
-0.0672492
-0.0609476
-0.0495485
-0.0339003
-0.0147259
0.00727507
0.0312888
0.0562771
0.0808955
0.103448
0.121891
0.133973
0.137706
0.13135
0.110366
0.0723835
-0.0401921
-0.078099
-0.0977175
-0.103334
-0.100635
-0.0912668
-0.0763258
-0.056776
-0.0333406
-0.00664753
0.0225848
0.0533881
0.0844079
0.113796
0.139146
0.157599
0.166381
0.162775
0.140518
0.096198
-0.0846148
-0.127138
-0.147066
-0.150073
-0.143484
-0.129606
-0.109851
-0.0852986
-0.0566205
-0.0242894
0.0111751
0.0489914
0.0879129
0.126036
0.160631
0.188162
0.204842
0.206543
0.184441
0.133327
-0.145602
-0.192861
-0.211499
-0.209523
-0.196695
-0.176271
-0.150053
-0.119207
-0.0842614
-0.0454072
-0.00281317
0.0430974
0.0913751
0.140249
0.186808
0.226855
0.255396
0.266337
0.247039
0.189115
-0.228446
-0.280042
-0.294274
-0.283324
-0.260644
-0.230786
-0.195964
-0.157324
-0.115087
-0.0689716
-0.0185911
0.0362228
0.095089
0.156677
0.218201
0.275005
0.320829
0.34702
0.335371
0.271836
-0.341999
-0.395712
-0.399328
-0.372681
-0.334664
-0.291365
-0.245247
-0.19716
-0.146723
-0.0929061
-0.0345006
0.0295416
0.0997582
0.175706
0.255263
0.333851
0.404241
0.454834
0.459715
0.394932
-0.502447
-0.550523
-0.530956
-0.477459
-0.416087
-0.354121
-0.29363
-0.234557
-0.175411
-0.114019
-0.0480315
0.0247982
0.106324
0.197561
0.297876
0.403835
0.508292
0.59714
0.63501
0.581364
-0.740196
-0.760213
-0.692736
-0.594687
-0.499013
-0.412279
-0.33457
-0.263706
-0.19626
-0.1284
-0.0562941
0.0237922
0.115406
0.221651
0.344491
0.483439
0.633786
0.78122
0.881828
0.87031
-1.11251
-1.04608
-0.88557
-0.717508
-0.574011
-0.456491
-0.360048
-0.278228
-0.204447
-0.132628
-0.0571769
0.0273097
0.126327
0.24566
0.391226
0.568148
0.778124
1.01181
1.22595
1.32822
-1.75157
-1.43373
-1.09614
-0.827085
-0.623857
-0.473188
-0.360538
-0.272055
-0.196584
-0.125401
-0.0511811
0.0329784
0.134446
0.261997
0.426854
0.643127
0.924659
1.27853
1.69954
2.09961
-3.01365
-1.93399
-1.23978
-0.847301
-0.595586
-0.428562
-0.315925
-0.234397
-0.168249
-0.106979
-0.0425916
0.0321745
0.125416
0.247793
0.415437
0.653424
0.995926
1.49882
2.32128
3.5499
-5.19594
-2.42227
-1.14885
-0.666297
-0.427151
-0.291369
-0.211839
-0.159942
-0.119199
-0.0802602
-0.0367635
0.0169063
0.0870785
0.182934
0.320643
0.53101
0.871938
1.49436
2.93241
5.87239
)
;

boundaryField
{
    movingWall
    {
        type            zeroGradient;
    }
    fixedWalls
    {
        type            zeroGradient;
    }
    frontAndBack
    {
        type            empty;
    }
}


// ************************************************************************* //
