/*--------------------------------*- C++ -*----------------------------------*\
  =========                 |
  \\      /  F ield         | OpenFOAM: The Open Source CFD Toolbox
   \\    /   O peration     | Website:  https://openfoam.org
    \\  /    A nd           | Version:  8
     \\/     M anipulation  |
\*---------------------------------------------------------------------------*/
FoamFile
{
    version     2.0;
    format      ascii;
    class       surfaceScalarField;
    location    "0.1";
    object      phi;
}
// * * * * * * * * * * * * * * * * * * * * * * * * * * * * * * * * * * * * * //

dimensions      [0 3 -1 0 0 0 0];

internalField   nonuniform List<scalar> 
760
(
1.66315e-08
-1.66327e-08
-2.67446e-08
4.33768e-08
-1.35624e-07
1.08878e-07
-2.90402e-07
1.54778e-07
-4.67798e-07
1.77395e-07
-6.45918e-07
1.78121e-07
-8.05969e-07
1.60051e-07
-9.32853e-07
1.26884e-07
-1.01529e-06
8.24364e-08
-1.04588e-06
3.05939e-08
-1.02133e-06
-2.45497e-08
-9.42791e-07
-7.85425e-08
-8.16286e-07
-1.26506e-07
-6.53055e-07
-1.63231e-07
-4.69572e-07
-1.83482e-07
-2.86971e-07
-1.82601e-07
-1.29484e-07
-1.57488e-07
-2.1495e-08
-1.07989e-07
1.86719e-08
-4.01666e-08
1.86718e-08
-4.07023e-08
2.40717e-08
-2.13659e-07
2.16332e-07
-5.1309e-07
4.08312e-07
-9.02634e-07
5.44322e-07
-1.33582e-06
6.10579e-07
-1.76571e-06
6.0801e-07
-2.14998e-06
5.44327e-07
-2.45356e-06
4.30459e-07
-2.64985e-06
2.78732e-07
-2.72156e-06
1.02303e-07
-2.66135e-06
-8.47649e-08
-2.47259e-06
-2.67305e-07
-2.17004e-06
-4.29053e-07
-1.78014e-06
-5.5313e-07
-1.3404e-06
-6.23225e-07
-8.97317e-07
-6.25679e-07
-5.02101e-07
-5.52704e-07
-2.0343e-07
-4.0666e-07
-3.6077e-08
-2.0752e-07
-1.74057e-08
-1.09271e-07
1.33343e-07
-4.22265e-07
5.29325e-07
-9.03293e-07
8.8934e-07
-1.49739e-06
1.13841e-06
-2.14094e-06
1.25414e-06
-2.77053e-06
1.2376e-06
-3.3287e-06
1.10249e-06
-3.76746e-06
8.6922e-07
-4.05031e-06
5.61585e-07
-4.15349e-06
2.05485e-07
-4.06701e-06
-1.71251e-07
-3.79559e-06
-5.38724e-07
-3.3595e-06
-8.65142e-07
-2.79475e-06
-1.11788e-06
-2.15217e-06
-1.26581e-06
-1.49455e-06
-1.2833e-06
-8.9115e-07
-1.1561e-06
-4.0925e-07
-8.88561e-07
-1.02743e-07
-5.14028e-07
-1.20148e-07
-1.72035e-07
3.05379e-07
-6.21632e-07
9.78921e-07
-1.2783e-06
1.54601e-06
-2.06376e-06
1.92388e-06
-2.89719e-06
2.08757e-06
-3.70159e-06
2.042e-06
-4.40862e-06
1.80952e-06
-4.96173e-06
1.42233e-06
-5.31803e-06
9.17887e-07
-5.44953e-06
3.3698e-07
-5.34417e-06
-2.76614e-07
-5.00692e-06
-8.75964e-07
-4.46083e-06
-1.41124e-06
-3.74746e-06
-1.83124e-06
-2.92639e-06
-2.08688e-06
-2.07253e-06
-2.13716e-06
-1.27093e-06
-1.9577e-06
-6.08547e-07
-1.55094e-06
-1.64189e-07
-9.58385e-07
-2.84337e-07
-2.29554e-07
5.34934e-07
-8.10973e-07
1.56034e-06
-1.63884e-06
2.37388e-06
-2.60893e-06
2.89397e-06
-3.62208e-06
3.10072e-06
-4.58861e-06
3.00853e-06
-5.43157e-06
2.65248e-06
-6.08856e-06
2.07932e-06
-6.51269e-06
1.34202e-06
-6.67318e-06
4.97466e-07
-6.55608e-06
-3.93706e-07
-6.16543e-06
-1.26662e-06
-5.5246e-06
-2.05207e-06
-4.67765e-06
-2.67819e-06
-3.68982e-06
-3.07471e-06
-2.64619e-06
-3.18079e-06
-1.64764e-06
-2.95626e-06
-8.03489e-07
-2.39509e-06
-2.21829e-07
-1.54004e-06
-5.06165e-07
-2.84773e-07
8.19706e-07
-9.95822e-07
2.27139e-06
-1.99283e-06
3.37089e-06
-3.14392e-06
4.04506e-06
-4.33065e-06
4.28745e-06
-5.45123e-06
4.12911e-06
-6.42179e-06
3.62304e-06
-7.17631e-06
2.83383e-06
-7.66588e-06
1.83159e-06
-7.85816e-06
6.89739e-07
-7.73732e-06
-5.14541e-07
-7.30516e-06
-1.69878e-06
-6.583e-06
-2.77422e-06
-5.61437e-06
-3.64682e-06
-4.46734e-06
-4.22175e-06
-3.23552e-06
-4.4126e-06
-2.0361e-06
-4.15568e-06
-1.00369e-06
-3.42749e-06
-2.79987e-07
-2.26375e-06
-7.86153e-07
-3.40616e-07
1.16032e-06
-1.18255e-06
3.11332e-06
-2.34873e-06
4.53706e-06
-3.67774e-06
5.37407e-06
-5.03134e-06
5.64105e-06
-6.29665e-06
5.39443e-06
-7.38511e-06
4.7115e-06
-8.22971e-06
3.67843e-06
-8.7819e-06
2.38379e-06
-9.00921e-06
9.17042e-07
-8.8941e-06
-6.29644e-07
-8.43481e-06
-2.15808e-06
-7.64791e-06
-3.56112e-06
-6.57273e-06
-4.722e-06
-5.27646e-06
-5.51801e-06
-3.85859e-06
-5.83047e-06
-2.45229e-06
-5.56199e-06
-1.22026e-06
-4.65952e-06
-3.43271e-07
-3.14074e-06
-1.12942e-06
-3.99683e-07
1.56001e-06
-1.3769e-06
4.09054e-06
-2.71303e-06
5.87319e-06
-4.21443e-06
6.87546e-06
-5.72298e-06
7.1496e-06
-7.11694e-06
6.78839e-06
-8.30655e-06
5.90111e-06
-9.22767e-06
4.59955e-06
-9.83546e-06
2.99158e-06
-1.00995e-05
1.1811e-06
-1.00012e-05
-7.27933e-07
-9.53398e-06
-2.62533e-06
-8.70646e-06
-4.38864e-06
-7.54901e-06
-5.87945e-06
-6.12237e-06
-6.94465e-06
-4.52704e-06
-7.4258e-06
-2.90989e-06
-7.17914e-06
-1.46389e-06
-6.10552e-06
-4.16173e-07
-4.18845e-06
-1.5456e-06
-4.6448e-07
2.02448e-06
-1.58395e-06
5.21001e-06
-3.08961e-06
7.37885e-06
-4.75155e-06
8.5374e-06
-6.39262e-06
8.79067e-06
-7.88626e-06
8.28203e-06
-9.14714e-06
7.16199e-06
-1.01197e-05
5.57212e-06
-1.07677e-05
3.6396e-06
-1.10662e-05
1.47959e-06
-1.09969e-05
-7.97278e-07
-1.05473e-05
-3.07489e-06
-9.71472e-06
-5.22123e-06
-8.51433e-06
-7.07984e-06
-6.99237e-06
-8.46661e-06
-5.24199e-06
-9.17618e-06
-3.41805e-06
-9.00308e-06
-1.74421e-06
-7.77937e-06
-5.03197e-07
-5.42946e-06
-2.04879e-06
-5.38171e-07
2.56265e-06
-1.80921e-06
6.48104e-06
-3.48004e-06
9.04969e-06
-5.27918e-06
1.03365e-05
-7.01297e-06
1.05245e-05
-8.55715e-06
9.82621e-06
-9.83938e-06
8.44423e-06
-1.08209e-05
6.55363e-06
-1.14807e-05
4.29941e-06
-1.18041e-05
1.80295e-06
-1.17754e-05
-8.25904e-07
-1.13764e-05
-3.47394e-06
-1.05891e-05
-6.00855e-06
-9.40626e-06
-8.26266e-06
-7.84869e-06
-1.00242e-05
-5.98917e-06
-1.10357e-05
-3.97929e-06
-1.1013e-05
-2.06984e-06
-9.68882e-06
-6.09434e-07
-6.88987e-06
-2.65823e-06
-6.25947e-07
3.1886e-06
-2.06053e-06
7.91562e-06
-3.88426e-06
1.08734e-05
-5.77817e-06
1.22304e-05
-7.53847e-06
1.22848e-05
-9.05497e-06
1.13427e-05
-1.02809e-05
9.67014e-06
-1.12051e-05
7.47781e-06
-1.18303e-05
4.92464e-06
-1.2158e-05
2.13071e-06
-1.21792e-05
-8.04755e-07
-1.18702e-05
-3.78297e-06
-1.11954e-05
-6.68335e-06
-1.01175e-05
-9.34055e-06
-8.6183e-06
-1.15234e-05
-6.73165e-06
-1.29224e-05
-4.58627e-06
-1.31583e-05
-2.44855e-06
-1.18265e-05
-7.41602e-07
-8.59681e-06
-3.39983e-06
-7.37298e-07
3.9259e-06
-2.35052e-06
9.52885e-06
-4.29993e-06
1.28228e-05
-6.21552e-06
1.4146e-05
-7.8974e-06
1.39666e-05
-9.26857e-06
1.27139e-05
-1.0325e-05
1.07266e-05
-1.10965e-05
8.24928e-06
-1.16188e-05
5.44693e-06
-1.19161e-05
2.42803e-06
-1.19902e-05
-7.30652e-07
-1.1815e-05
-3.95822e-06
-1.13364e-05
-7.16186e-06
-1.04814e-05
-1.01956e-05
-9.17833e-06
-1.28264e-05
-7.3981e-06
-1.47026e-05
-5.21565e-06
-1.53408e-05
-2.88682e-06
-1.41554e-05
-9.09762e-07
-1.05739e-05
-4.30959e-06
-8.89725e-07
4.81562e-06
-2.69839e-06
1.13375e-05
-4.71742e-06
1.48419e-05
-6.53229e-06
1.59609e-05
-7.97592e-06
1.54103e-05
-9.03394e-06
1.37719e-05
-9.76707e-06
1.14597e-05
-1.02594e-05
8.74164e-06
-1.05878e-05
5.77525e-06
-1.08039e-05
2.6442e-06
-1.09249e-05
-6.09653e-07
-1.09264e-05
-3.9567e-06
-1.07397e-05
-7.34861e-06
-1.02544e-05
-1.06809e-05
-9.33516e-06
-1.37456e-05
-7.86308e-06
-1.61747e-05
-5.81529e-06
-1.73886e-05
-3.3871e-06
-1.65836e-05
-1.13004e-06
-1.28309e-05
-5.43963e-06
-1.11422e-06
5.92984e-06
-3.12761e-06
1.33509e-05
-5.1024e-06
1.68166e-05
-6.61502e-06
1.74735e-05
-7.58616e-06
1.63814e-05
-8.10591e-06
1.42917e-05
-8.32303e-06
1.16769e-05
-8.38543e-06
8.80404e-06
-8.41262e-06
5.80243e-06
-8.48431e-06
2.71588e-06
-8.63477e-06
-4.59188e-07
-8.84738e-06
-3.74408e-06
-9.04754e-06
-7.14845e-06
-9.0966e-06
-1.06319e-05
-8.79521e-06
-1.4047e-05
-7.9138e-06
-1.70561e-05
-6.27792e-06
-1.90245e-05
-3.93795e-06
-1.89235e-05
-1.4279e-06
-1.5341e-05
-6.86753e-06
-1.46e-06
7.38984e-06
-3.64666e-06
1.55376e-05
-5.34732e-06
1.85173e-05
-6.23323e-06
1.83594e-05
-6.40665e-06
1.65548e-05
-6.1118e-06
1.39968e-05
-5.60047e-06
1.11655e-05
-5.08019e-06
8.28377e-06
-4.7025e-06
5.42474e-06
-4.5656e-06
2.57899e-06
-4.71803e-06
-3.06765e-07
-5.15661e-06
-3.3055e-06
-5.8165e-06
-6.48856e-06
-6.55357e-06
-9.89481e-06
-7.12595e-06
-1.34746e-05
-7.19461e-06
-1.69874e-05
-6.38562e-06
-1.98335e-05
-4.48236e-06
-2.08268e-05
-1.83703e-06
-1.79863e-05
-8.70456e-06
-1.98187e-06
9.3717e-06
-4.17345e-06
1.77292e-05
-5.14952e-06
1.94934e-05
-4.9133e-06
1.81232e-05
-3.88086e-06
1.55224e-05
-2.48477e-06
1.26007e-05
-1.06471e-06
9.74546e-06
1.43847e-07
7.07521e-06
9.88327e-07
4.58026e-06
1.37448e-06
2.19283e-06
1.25042e-06
-1.82698e-07
6.02572e-07
-2.65765e-06
-5.33997e-07
-5.35199e-06
-2.04842e-06
-8.38039e-06
-3.70976e-06
-1.18133e-05
-5.11808e-06
-1.55791e-05
-5.6961e-06
-1.92554e-05
-4.82573e-06
-2.16972e-05
-2.37184e-06
-2.04402e-05
-1.10764e-05
-2.65781e-06
1.20295e-05
-4.30304e-06
1.93744e-05
-3.73346e-06
1.89238e-05
-1.70901e-06
1.60988e-05
9.31578e-07
1.28818e-05
3.61072e-06
9.92157e-06
5.98136e-06
7.37483e-06
7.85281e-06
5.20376e-06
9.12462e-06
3.30845e-06
9.74092e-06
1.57652e-06
9.66449e-06
-1.06269e-07
8.86724e-06
-1.8604e-06
7.33634e-06
-3.82109e-06
5.1022e-06
-6.14625e-06
2.29871e-06
-9.0098e-06
-7.35019e-07
-1.25454e-05
-3.32706e-06
-1.66634e-05
-4.40851e-06
-2.06157e-05
-2.91885e-06
-2.19299e-05
-1.39953e-05
-3.09982e-06
1.51293e-05
-2.68969e-06
1.89642e-05
7.1959e-07
1.55145e-05
5.16063e-06
1.16577e-05
9.52119e-06
8.52123e-06
1.33141e-05
6.12868e-06
1.6361e-05
4.3279e-06
1.86233e-05
2.9415e-06
2.01118e-05
1.81998e-06
2.08407e-05
8.47593e-07
2.08053e-05
-7.08405e-08
1.99715e-05
-1.02666e-06
1.82751e-05
-2.12464e-06
1.5634e-05
-3.5052e-06
1.19937e-05
-5.36946e-06
7.439e-06
-7.99068e-06
2.42875e-06
-1.16531e-05
-1.79703e-06
-1.63899e-05
-2.93527e-06
-2.07916e-05
-1.69305e-05
-1.01483e-06
1.61442e-05
4.73618e-06
1.32132e-05
1.21303e-05
8.12041e-06
1.8692e-05
5.09605e-06
2.39265e-05
3.28668e-06
2.79061e-05
2.14912e-06
3.08222e-05
1.41175e-06
3.28553e-05
9.08449e-07
3.41385e-05
5.36761e-07
3.47522e-05
2.33932e-07
3.47242e-05
-4.28996e-08
3.40274e-05
-3.29876e-07
3.25725e-05
-6.69757e-07
3.01941e-05
-1.12678e-06
2.66388e-05
-1.81416e-06
2.15881e-05
-2.93993e-06
1.4817e-05
-4.88209e-06
6.73967e-06
-8.31259e-06
-7.31754e-08
-1.39788e-05
-1.70037e-05
1.61442e-05
2.93574e-05
3.74778e-05
4.25739e-05
4.58605e-05
4.80097e-05
4.94214e-05
5.03299e-05
5.08666e-05
5.11006e-05
5.10577e-05
5.07278e-05
5.0058e-05
4.89312e-05
4.71171e-05
4.41772e-05
3.92951e-05
3.09825e-05
1.70037e-05
)
;

boundaryField
{
    movingWall
    {
        type            calculated;
        value           uniform 0;
    }
    fixedWalls
    {
        type            calculated;
        value           uniform 0;
    }
    frontAndBack
    {
        type            empty;
        value           nonuniform List<scalar> 0();
    }
}


// ************************************************************************* //
