/*--------------------------------*- C++ -*----------------------------------*\
  =========                 |
  \\      /  F ield         | OpenFOAM: The Open Source CFD Toolbox
   \\    /   O peration     | Website:  https://openfoam.org
    \\  /    A nd           | Version:  8
     \\/     M anipulation  |
\*---------------------------------------------------------------------------*/
FoamFile
{
    version     2.0;
    format      ascii;
    class       volScalarField;
    location    "0.5";
    object      p;
}
// * * * * * * * * * * * * * * * * * * * * * * * * * * * * * * * * * * * * * //

dimensions      [0 2 -2 0 0 0 0];

internalField   nonuniform List<scalar> 
400
(
3.32373e-05
-0.0215726
-0.0472814
-0.0665951
-0.0738723
-0.0667213
-0.0448643
-0.00941337
0.0374758
0.0926849
0.152144
0.21094
0.263645
0.304919
0.330363
0.33754
0.326987
0.303043
0.274239
0.252922
0.0215368
-0.000838903
-0.0209192
-0.0340405
-0.0378693
-0.0307876
-0.0124544
0.0164214
0.054296
0.0988137
0.146805
0.194388
0.237254
0.271173
0.2927
0.299967
0.293455
0.276333
0.253579
0.231891
0.048763
0.0178757
-0.00362665
-0.0154294
-0.0184987
-0.0121734
0.00365623
0.0284104
0.060939
0.0994297
0.141313
0.183291
0.221561
0.252258
0.272089
0.279065
0.273251
0.256834
0.231883
0.201547
0.0717143
0.0294749
0.00311479
-0.0101383
-0.0140936
-0.00895712
0.00508894
0.0274883
0.0573667
0.0933081
0.133132
0.173817
0.211646
0.242595
0.26296
0.270132
0.263492
0.244408
0.21279
0.169926
0.083283
0.0295753
-0.00244347
-0.0180208
-0.0234207
-0.0195575
-0.00682907
0.0142644
0.0431248
0.0787014
0.11913
0.161536
0.202074
0.236267
0.259625
0.268536
0.261419
0.238801
0.198794
0.141711
0.0779403
0.0133194
-0.0243722
-0.0424892
-0.0494448
-0.0467107
-0.0347946
-0.0140602
0.0152262
0.0524132
0.0959599
0.143095
0.189729
0.230697
0.260374
0.273705
0.267741
0.241949
0.192665
0.119728
0.0509781
-0.0238496
-0.0668821
-0.0873852
-0.0957313
-0.0938472
-0.0822502
-0.061064
-0.0301183
0.010442
0.0594998
0.114456
0.170958
0.222999
0.263462
0.285309
0.283612
0.256246
0.197337
0.106377
-0.00196038
-0.0862769
-0.134092
-0.156531
-0.165873
-0.164472
-0.152781
-0.130571
-0.0970803
-0.0517585
0.0049195
0.0707352
0.141211
0.209455
0.266543
0.302805
0.310448
0.28479
0.216664
0.104915
-0.0851287
-0.178299
-0.230141
-0.25373
-0.263384
-0.261955
-0.249812
-0.226258
-0.189754
-0.13878
-0.0728247
0.00665206
0.0953852
0.185758
0.266843
0.325639
0.350296
0.33203
0.256407
0.120706
-0.202818
-0.304393
-0.359176
-0.382532
-0.391245
-0.388895
-0.375815
-0.350751
-0.311164
-0.254224
-0.177979
-0.0825639
0.0285575
0.147512
0.261449
0.353437
0.406144
0.404428
0.325357
0.162676
-0.359619
-0.469449
-0.525357
-0.54588
-0.55123
-0.546179
-0.531156
-0.504276
-0.461762
-0.399089
-0.31231
-0.199522
-0.0625205
0.0914377
0.248156
0.38657
0.482446
0.511317
0.436821
0.245333
-0.561175
-0.679403
-0.732975
-0.745666
-0.743036
-0.731798
-0.712664
-0.683022
-0.637581
-0.569698
-0.47285
-0.342285
-0.177053
0.0175304
0.227209
0.427418
0.586122
0.666139
0.610726
0.391903
-0.816092
-0.942555
-0.986715
-0.982152
-0.963194
-0.939489
-0.912118
-0.877493
-0.828419
-0.755665
-0.649563
-0.501735
-0.307328
-0.0680466
0.203914
0.482452
0.728189
0.88822
0.876683
0.639564
-1.14052
-1.27207
-1.29195
-1.25302
-1.2037
-1.15735
-1.11498
-1.07139
-1.01678
-0.938762
-0.823998
-0.659847
-0.436537
-0.150392
0.191287
0.564547
0.925649
1.20497
1.27858
1.04886
-1.56849
-1.69025
-1.65434
-1.55142
-1.45008
-1.36644
-1.29974
-1.24157
-1.17839
-1.09383
-0.970365
-0.790669
-0.539354
-0.205856
0.210567
0.693561
1.20182
1.65293
1.88
1.71922
-2.17283
-2.23448
-2.07777
-1.86271
-1.6791
-1.53999
-1.43849
-1.36004
-1.28535
-1.19289
-1.06045
-0.865782
-0.587517
-0.207138
0.287114
0.893207
1.58346
2.27485
2.76574
2.80669
-3.10745
-2.96292
-2.56145
-2.16374
-1.86
-1.6464
-1.50179
-1.40027
-1.31366
-1.21395
-1.07371
-0.865682
-0.562339
-0.136296
0.438225
1.18113
2.09285
3.11179
4.04049
4.55114
-4.75108
-3.95119
-3.07158
-2.40481
-1.9458
-1.64688
-1.46126
-1.34328
-1.25209
-1.15216
-1.01105
-0.796985
-0.476698
-0.0130964
0.637244
1.52566
2.69959
4.16139
5.84685
7.45028
-8.17032
-5.22438
-3.35606
-2.36341
-1.78024
-1.43901
-1.25466
-1.15662
-1.09076
-1.01618
-0.898299
-0.703662
-0.396546
0.0671428
0.747579
1.73452
3.15384
5.18359
8.27898
12.6593
-14.5657
-6.45175
-2.89296
-1.69354
-1.16836
-0.919614
-0.832741
-0.824375
-0.836394
-0.830018
-0.774512
-0.640606
-0.395492
0.00162828
0.61202
1.54513
3.01925
5.54391
10.6836
20.3911
)
;

boundaryField
{
    movingWall
    {
        type            zeroGradient;
    }
    fixedWalls
    {
        type            zeroGradient;
    }
    frontAndBack
    {
        type            empty;
    }
}


// ************************************************************************* //
