/*--------------------------------*- C++ -*----------------------------------*\
  =========                 |
  \\      /  F ield         | OpenFOAM: The Open Source CFD Toolbox
   \\    /   O peration     | Website:  https://openfoam.org
    \\  /    A nd           | Version:  8
     \\/     M anipulation  |
\*---------------------------------------------------------------------------*/
FoamFile
{
    version     2.0;
    format      ascii;
    class       surfaceScalarField;
    location    "0.5";
    object      phi;
}
// * * * * * * * * * * * * * * * * * * * * * * * * * * * * * * * * * * * * * //

dimensions      [0 3 -1 0 0 0 0];

internalField   nonuniform List<scalar> 
760
(
4.79472e-08
-4.82261e-08
-9.38356e-08
1.41783e-07
-4.34654e-07
3.40818e-07
-9.10809e-07
4.76155e-07
-1.45291e-06
5.42099e-07
-1.99879e-06
5.45885e-07
-2.49554e-06
4.96749e-07
-2.8988e-06
4.03259e-07
-3.17198e-06
2.73183e-07
-3.2869e-06
1.14916e-07
-3.22615e-06
-6.07483e-08
-2.98682e-06
-2.39333e-07
-2.58436e-06
-4.02453e-07
-2.05543e-06
-5.28931e-07
-1.45802e-06
-5.9741e-07
-8.67686e-07
-5.90339e-07
-3.68722e-07
-4.98965e-07
-4.01339e-08
-3.28585e-07
6.80928e-08
-1.08224e-07
6.80945e-08
-1.38419e-07
9.01925e-08
-6.93221e-07
6.96586e-07
-1.63222e-06
1.27982e-06
-2.83861e-06
1.68255e-06
-4.17355e-06
1.87704e-06
-5.50143e-06
1.87377e-06
-6.70005e-06
1.69537e-06
-7.66426e-06
1.36747e-06
-8.30803e-06
9.16957e-07
-8.56772e-06
3.74609e-07
-8.40752e-06
-2.20954e-07
-7.82634e-06
-8.20515e-07
-6.86452e-06
-1.36427e-06
-5.60769e-06
-1.78576e-06
-4.18499e-06
-2.02011e-06
-2.75905e-06
-2.01628e-06
-1.5057e-06
-1.75232e-06
-5.83164e-07
-1.25112e-06
-9.03043e-08
-6.01086e-07
-2.22071e-08
-3.60098e-07
4.5029e-07
-1.35947e-06
1.69595e-06
-2.86746e-06
2.78782e-06
-4.70993e-06
3.52501e-06
-6.69792e-06
3.86502e-06
-8.64803e-06
3.82388e-06
-1.03933e-05
3.44068e-06
-1.17891e-05
2.76325e-06
-1.2717e-05
1.8448e-06
-1.30901e-05
7.47702e-07
-1.28604e-05
-4.506e-07
-1.20275e-05
-1.65347e-06
-1.06461e-05
-2.74562e-06
-8.83135e-06
-3.60052e-06
-6.75609e-06
-4.09537e-06
-4.63864e-06
-4.13374e-06
-2.71766e-06
-3.6733e-06
-1.21506e-06
-2.75371e-06
-2.90792e-07
-1.52536e-06
-3.12997e-07
-5.62338e-07
1.01263e-06
-1.9902e-06
3.12382e-06
-4.04025e-06
4.83787e-06
-6.46884e-06
5.9536e-06
-9.03904e-06
6.43523e-06
-1.15305e-05
6.31529e-06
-1.37455e-05
5.65576e-06
-1.55136e-05
4.53127e-06
-1.66945e-05
3.02573e-06
-1.71846e-05
1.23778e-06
-1.69242e-05
-7.10947e-07
-1.59078e-05
-2.66987e-06
-1.41935e-05
-4.45995e-06
-1.19102e-05
-5.88378e-06
-9.25827e-06
-6.74732e-06
-6.49859e-06
-6.89342e-06
-3.92794e-06
-6.24394e-06
-1.83996e-06
-4.84169e-06
-4.78608e-07
-2.88671e-06
-7.91605e-07
-7.43629e-07
1.75626e-06
-2.57252e-06
4.95271e-06
-5.134e-06
7.39935e-06
-8.11111e-06
8.93071e-06
-1.12193e-05
9.54344e-06
-1.42068e-05
9.30277e-06
-1.68539e-05
8.30284e-06
-1.89726e-05
6.64998e-06
-2.04079e-05
4.46103e-06
-2.10417e-05
1.87163e-06
-2.08006e-05
-9.52062e-07
-1.96663e-05
-3.80424e-06
-1.76881e-05
-6.43808e-06
-1.49953e-05
-8.57659e-06
-1.18032e-05
-9.93943e-06
-8.40931e-06
-1.02873e-05
-5.17239e-06
-9.48086e-06
-2.47287e-06
-7.54122e-06
-6.59842e-07
-4.69974e-06
-1.45145e-06
-9.08717e-07
2.66497e-06
-3.11088e-06
7.15487e-06
-6.15184e-06
1.04403e-05
-9.64255e-06
1.24214e-05
-1.32529e-05
1.31538e-05
-1.67044e-05
1.27543e-05
-1.97619e-05
1.13603e-05
-2.22271e-05
9.11515e-06
-2.39349e-05
6.16881e-06
-2.47543e-05
2.69111e-06
-2.45947e-05
-1.11168e-06
-2.34166e-05
-4.98239e-06
-2.12479e-05
-8.60677e-06
-1.82028e-05
-1.16217e-05
-1.44984e-05
-1.36438e-05
-1.04623e-05
-1.43234e-05
-6.52036e-06
-1.34228e-05
-3.15731e-06
-1.09043e-05
-8.52354e-07
-7.0047e-06
-2.3038e-06
-1.06172e-06
3.7267e-06
-3.61135e-06
9.7045e-06
-7.09783e-06
1.39268e-05
-1.10629e-05
1.63865e-05
-1.51348e-05
1.72257e-05
-1.90141e-05
1.66336e-05
-2.24577e-05
1.48039e-05
-2.52643e-05
1.19217e-05
-2.72645e-05
8.16906e-06
-2.83172e-05
3.74372e-06
-2.83117e-05
-1.11712e-06
-2.71796e-05
-6.1145e-06
-2.49134e-05
-1.08729e-05
-2.15942e-05
-1.49409e-05
-1.74223e-05
-1.78157e-05
-1.27424e-05
-1.90033e-05
-8.04729e-06
-1.81179e-05
-3.94453e-06
-1.5007e-05
-1.07635e-06
-9.87288e-06
-3.38015e-06
-1.20556e-06
4.93225e-06
-4.07824e-06
1.25772e-05
-7.97163e-06
1.78202e-05
-1.23604e-05
2.07753e-05
-1.68362e-05
2.17015e-05
-2.10867e-05
2.08841e-05
-2.48707e-05
1.85879e-05
-2.7994e-05
1.5045e-05
-3.02916e-05
1.04667e-05
-3.16177e-05
5.06979e-06
-3.1843e-05
-8.91777e-07
-3.08642e-05
-7.09339e-06
-2.86245e-05
-1.31126e-05
-2.51503e-05
-1.84151e-05
-2.05981e-05
-2.23679e-05
-1.53046e-05
-2.42968e-05
-9.81892e-06
-2.36037e-05
-4.88541e-06
-1.99405e-05
-1.35266e-06
-1.34056e-05
-4.73281e-06
-1.34305e-06
6.2753e-06
-4.51563e-06
1.57498e-05
-8.76978e-06
2.20743e-05
-1.35124e-05
2.5518e-05
-1.83046e-05
2.64937e-05
-2.28327e-05
2.54122e-05
-2.68706e-05
2.26258e-05
-3.02455e-05
1.84199e-05
-3.28104e-05
1.30316e-05
-3.44254e-05
6.68478e-06
-3.49492e-05
-3.67973e-07
-3.42428e-05
-7.79981e-06
-3.21896e-05
-1.51658e-05
-2.8737e-05
-2.18677e-05
-2.39613e-05
-2.71436e-05
-1.81499e-05
-3.01082e-05
-1.18768e-05
-2.98768e-05
-6.02566e-06
-2.57916e-05
-1.70278e-06
-1.77285e-05
-6.43559e-06
-1.4798e-06
7.75511e-06
-4.93326e-06
1.92032e-05
-9.4924e-06
2.66335e-05
-1.44913e-05
3.05168e-05
-1.94687e-05
3.14712e-05
-2.41252e-05
3.00686e-05
-2.82687e-05
2.67693e-05
-3.17672e-05
2.19184e-05
-3.45104e-05
1.57749e-05
-3.63822e-05
8.55659e-06
-3.72433e-05
4.93091e-07
-3.69267e-05
-8.11637e-06
-3.52519e-05
-1.68406e-05
-3.20657e-05
-2.50539e-05
-2.73207e-05
-3.18887e-05
-2.11929e-05
-3.62359e-05
-1.42203e-05
-3.68494e-05
-7.40132e-06
-3.26106e-05
-2.15012e-06
-2.29797e-05
-8.58571e-06
-1.62924e-06
9.38435e-06
-5.35616e-06
2.29301e-05
-1.01535e-05
3.14308e-05
-1.52727e-05
3.5636e-05
-2.02433e-05
3.64417e-05
-2.48028e-05
3.46282e-05
-2.88195e-05
3.07859e-05
-3.22271e-05
2.5326e-05
-3.49768e-05
1.85245e-05
-3.69999e-05
1.05797e-05
-3.8182e-05
1.67519e-06
-3.83471e-05
-7.95124e-06
-3.72589e-05
-1.79288e-05
-3.46516e-05
-2.76612e-05
-3.03104e-05
-3.62299e-05
-2.42201e-05
-4.23262e-05
-1.67809e-05
-4.42887e-05
-9.03153e-06
-4.036e-05
-2.72211e-06
-2.92891e-05
-1.13078e-05
-1.82072e-06
1.12051e-05
-5.83794e-06
2.69474e-05
-1.07921e-05
3.6385e-05
-1.58404e-05
4.06843e-05
-2.05284e-05
4.11297e-05
-2.46669e-05
3.87667e-05
-2.82187e-05
3.43378e-05
-3.12148e-05
2.83221e-05
-3.36954e-05
2.10051e-05
-3.56675e-05
1.25518e-05
-3.70714e-05
3.07912e-06
-3.77529e-05
-7.26981e-06
-3.74454e-05
-1.82362e-05
-3.57784e-05
-2.93282e-05
-3.23396e-05
-3.96687e-05
-2.68349e-05
-4.78309e-05
-1.93812e-05
-5.17424e-05
-1.09044e-05
-4.88368e-05
-3.45329e-06
-3.67402e-05
-1.47611e-05
-2.11278e-06
1.33179e-05
-6.47617e-06
3.13107e-05
-1.14755e-05
4.13844e-05
-1.61744e-05
4.53832e-05
-2.0187e-05
4.51422e-05
-2.34549e-05
4.20346e-05
-2.60819e-05
3.69648e-05
-2.82296e-05
3.04699e-05
-3.00545e-05
2.283e-05
-3.16656e-05
1.41629e-05
-3.30889e-05
4.50246e-06
-3.42312e-05
-6.12751e-06
-3.4841e-05
-1.76264e-05
-3.44808e-05
-2.96883e-05
-3.25449e-05
-4.16046e-05
-2.83902e-05
-5.19856e-05
-2.16729e-05
-5.84596e-05
-1.29484e-05
-5.75614e-05
-4.38842e-06
-4.53002e-05
-1.91495e-05
-2.6138e-06
1.59317e-05
-7.42197e-06
3.61189e-05
-1.22738e-05
4.62363e-05
-1.61917e-05
4.93011e-05
-1.8967e-05
4.79175e-05
-2.07614e-05
4.38291e-05
-2.18762e-05
3.80795e-05
-2.26347e-05
3.12284e-05
-2.33262e-05
2.35215e-05
-2.41753e-05
1.5012e-05
-2.53158e-05
5.64296e-06
-2.67535e-05
-4.68984e-06
-2.83111e-05
-1.60688e-05
-2.95586e-05
-2.84408e-05
-2.97589e-05
-4.14043e-05
-2.79098e-05
-5.38347e-05
-2.30417e-05
-6.33277e-05
-1.49722e-05
-6.56309e-05
-5.58017e-06
-5.46922e-05
-2.47297e-05
-3.50774e-06
1.94394e-05
-8.85355e-06
4.14647e-05
-1.31479e-05
5.05306e-05
-1.5572e-05
5.17252e-05
-1.63037e-05
4.86492e-05
-1.58499e-05
4.33753e-05
-1.4764e-05
3.69936e-05
-1.35427e-05
3.00071e-05
-1.25989e-05
2.25777e-05
-1.22597e-05
1.46728e-05
-1.27634e-05
6.14662e-06
-1.42352e-05
-3.21806e-06
-1.66301e-05
-1.36739e-05
-1.96305e-05
-2.54404e-05
-2.25057e-05
-3.85291e-05
-2.40008e-05
-5.23397e-05
-2.24549e-05
-6.48736e-05
-1.65315e-05
-7.15543e-05
-7.05597e-06
-6.41677e-05
-3.17857e-05
-5.04923e-06
2.44886e-05
-1.08033e-05
4.72188e-05
-1.35996e-05
5.33269e-05
-1.33265e-05
5.1452e-05
-1.08941e-05
4.62168e-05
-7.28323e-06
3.97644e-05
-3.31053e-06
3.30209e-05
3.95373e-07
2.63012e-05
3.35705e-06
1.9616e-05
5.20088e-06
1.2829e-05
5.6273e-06
5.7202e-06
4.40739e-06
-1.99815e-06
1.42221e-06
-1.06887e-05
-3.23127e-06
-2.07869e-05
-9.0357e-06
-3.27246e-05
-1.4757e-05
-4.66184e-05
-1.8216e-05
-6.14146e-05
-1.66322e-05
-7.31381e-05
-8.67514e-06
-7.21248e-05
-4.04608e-05
-7.38829e-06
3.18769e-05
-1.24967e-05
5.23272e-05
-1.17302e-05
5.25604e-05
-6.855e-06
4.65768e-05
9.28283e-08
3.9269e-05
7.67035e-06
3.21869e-05
1.49295e-05
2.57618e-05
2.12601e-05
1.99706e-05
2.62508e-05
1.46254e-05
2.95897e-05
9.49009e-06
3.10012e-05
4.30872e-06
3.02138e-05
-1.21077e-06
2.69652e-05
-7.44006e-06
2.10671e-05
-1.48888e-05
1.26017e-05
-2.42592e-05
2.34053e-06
-3.63572e-05
-7.58841e-06
-5.14857e-05
-1.31621e-05
-6.75644e-05
-9.73686e-06
-7.55501e-05
-5.01977e-05
-9.78352e-06
4.16604e-05
-1.02667e-05
5.28104e-05
-1.98535e-06
4.4279e-05
9.82655e-06
3.47649e-05
2.2188e-05
2.69075e-05
3.37068e-05
2.06682e-05
4.37346e-05
1.57339e-05
5.19722e-05
1.17331e-05
5.82673e-05
8.3303e-06
6.25009e-05
5.25647e-06
6.45226e-05
2.28702e-06
6.41094e-05
-7.97561e-07
6.09347e-05
-4.26541e-06
5.45604e-05
-8.51449e-06
4.45115e-05
-1.42103e-05
3.06052e-05
-2.2451e-05
1.38576e-05
-3.4738e-05
-1.7896e-06
-5.19172e-05
-8.1337e-06
-6.9206e-05
-5.83314e-05
-5.67356e-06
4.7334e-05
9.02277e-06
3.81141e-05
2.94528e-05
2.38489e-05
4.83954e-05
1.58224e-05
6.43756e-05
1.09273e-05
7.73831e-05
7.66066e-06
8.77032e-05
5.41381e-06
9.56394e-05
3.79685e-06
0.000101424
2.54564e-06
0.000105189
1.4917e-06
0.000106953
5.22482e-07
0.000106614
-4.58375e-07
0.000103897
-1.54851e-06
9.82945e-05
-2.91168e-06
8.89433e-05
-4.85907e-06
7.45618e-05
-8.06943e-06
5.38542e-05
-1.40304e-05
2.74383e-05
-2.55013e-05
3.14859e-06
-4.49163e-05
-5.51828e-05
4.7334e-05
8.54481e-05
0.000109297
0.000125119
0.000136047
0.000143707
0.000149121
0.000152918
0.000155464
0.000156955
0.000157478
0.000157019
0.000155471
0.000152559
0.0001477
0.000139631
0.0001256
0.000100099
5.51828e-05
)
;

boundaryField
{
    movingWall
    {
        type            calculated;
        value           uniform 0;
    }
    fixedWalls
    {
        type            calculated;
        value           uniform 0;
    }
    frontAndBack
    {
        type            empty;
        value           nonuniform List<scalar> 0();
    }
}


// ************************************************************************* //
