/*--------------------------------*- C++ -*----------------------------------*\
  =========                 |
  \\      /  F ield         | OpenFOAM: The Open Source CFD Toolbox
   \\    /   O peration     | Website:  https://openfoam.org
    \\  /    A nd           | Version:  8
     \\/     M anipulation  |
\*---------------------------------------------------------------------------*/
FoamFile
{
    version     2.0;
    format      ascii;
    class       volVectorField;
    location    "0.5";
    object      U;
}
// * * * * * * * * * * * * * * * * * * * * * * * * * * * * * * * * * * * * * //

dimensions      [0 1 -1 0 0 0 0];

internalField   nonuniform List<vector> 
400
(
(0.000889859 -0.00089015 0)
(0.000346672 0.000472419 0)
(-0.00461786 0.00209346 0)
(-0.0130499 0.0031975 0)
(-0.023502 0.00374345 0)
(-0.0346282 0.00381571 0)
(-0.0452679 0.00350246 0)
(-0.054446 0.00287343 0)
(-0.0613502 0.00198216 0)
(-0.0653257 0.000881542 0)
(-0.0659047 -0.000358072 0)
(-0.06287 -0.00163574 0)
(-0.0563356 -0.00281547 0)
(-0.046819 -0.00373376 0)
(-0.0352763 -0.00421922 0)
(-0.0230715 -0.00412386 0)
(-0.0118527 -0.00336359 0)
(-0.0033215 -0.00196435 0)
(0.00112086 -0.000171966 0)
(0.00108826 0.00105625 0)
(-0.000408788 -0.000437211 0)
(-0.00636986 0.00634594 0)
(-0.0216501 0.013404 0)
(-0.0437846 0.0183204 0)
(-0.069861 0.0207479 0)
(-0.0971023 0.0208652 0)
(-0.122911 0.018975 0)
(-0.144995 0.0153872 0)
(-0.161428 0.0104027 0)
(-0.170695 0.00435564 0)
(-0.171772 -0.00232927 0)
(-0.16426 -0.00909575 0)
(-0.148529 -0.0152511 0)
(-0.125836 -0.0200106 0)
(-0.098355 -0.0225953 0)
(-0.0690747 -0.02238 0)
(-0.0414851 -0.0190793 0)
(-0.0190536 -0.0129483 0)
(-0.00469073 -0.00511377 0)
(7.89865e-05 0.00125248 0)
(-0.00215422 0.00453804 0)
(-0.0143568 0.0218356 0)
(-0.0400415 0.0378813 0)
(-0.0745966 0.0489425 0)
(-0.113842 0.0542294 0)
(-0.154082 0.0539655 0)
(-0.191803 0.0487383 0)
(-0.223859 0.0392532 0)
(-0.247593 0.026278 0)
(-0.260925 0.0107052 0)
(-0.262471 -0.00635081 0)
(-0.251708 -0.0234857 0)
(-0.229149 -0.0390122 0)
(-0.196489 -0.0510713 0)
(-0.156641 -0.0578612 0)
(-0.113607 -0.0579775 0)
(-0.0720752 -0.0508334 0)
(-0.0367605 -0.037088 0)
(-0.0120387 -0.0191568 0)
(-0.00142703 -0.00252585 0)
(-0.00370973 0.0138283 0)
(-0.0218537 0.0462764 0)
(-0.0575812 0.0737407 0)
(-0.103791 0.0920488 0)
(-0.15495 0.100294 0)
(-0.2066 0.0988908 0)
(-0.254583 0.0888061 0)
(-0.295184 0.0712388 0)
(-0.32527 0.0475425 0)
(-0.342373 0.0193121 0)
(-0.344821 -0.0114777 0)
(-0.331916 -0.0423761 0)
(-0.304145 -0.0704731 0)
(-0.263362 -0.0925796 0)
(-0.212884 -0.105598 0)
(-0.157409 -0.107082 0)
(-0.10262 -0.0959259 0)
(-0.0544915 -0.0730445 0)
(-0.0191874 -0.0420135 0)
(-0.00277255 -0.0102278 0)
(-0.00505995 0.0269531 0)
(-0.0286808 0.0789798 0)
(-0.0738921 0.120028 0)
(-0.131077 0.146308 0)
(-0.193311 0.1573 0)
(-0.255438 0.153892 0)
(-0.312804 0.137593 0)
(-0.361314 0.110187 0)
(-0.397524 0.0736735 0)
(-0.418676 0.0303989 0)
(-0.422814 -0.0167512 0)
(-0.40897 -0.0642095 0)
(-0.3774 -0.10773 0)
(-0.329845 -0.142611 0)
(-0.269743 -0.164188 0)
(-0.202287 -0.168619 0)
(-0.134118 -0.153876 0)
(-0.0726595 -0.120744 0)
(-0.0262747 -0.0736281 0)
(-0.00399655 -0.0215777 0)
(-0.00626574 0.0435325 0)
(-0.0349415 0.119413 0)
(-0.0890342 0.176209 0)
(-0.156514 0.21116 0)
(-0.229096 0.224661 0)
(-0.300989 0.218433 0)
(-0.367165 0.194736 0)
(-0.423295 0.156036 0)
(-0.465748 0.105005 0)
(-0.491551 0.0447164 0)
(-0.49845 -0.0210739 0)
(-0.485083 -0.0877078 0)
(-0.451257 -0.149565 0)
(-0.398307 -0.200272 0)
(-0.329488 -0.23328 0)
(-0.250264 -0.242854 0)
(-0.168196 -0.22543 0)
(-0.0923889 -0.181054 0)
(-0.0338934 -0.114545 0)
(-0.00526582 -0.0366001 0)
(-0.00737758 0.0632843 0)
(-0.0407546 0.167053 0)
(-0.103121 0.241661 0)
(-0.180145 0.285936 0)
(-0.262253 0.301716 0)
(-0.343108 0.291956 0)
(-0.41745 0.259902 0)
(-0.48087 0.208809 0)
(-0.529693 0.142009 0)
(-0.560819 0.0632119 0)
(-0.571704 -0.0230918 0)
(-0.560492 -0.111283 0)
(-0.526316 -0.194422 0)
(-0.469776 -0.264363 0)
(-0.393553 -0.312325 0)
(-0.303032 -0.330047 0)
(-0.20653 -0.311573 0)
(-0.114994 -0.25531 0)
(-0.0427555 -0.165884 0)
(-0.00676895 -0.0557148 0)
(-0.00843167 0.0859962 0)
(-0.0462134 0.221398 0)
(-0.116221 0.315669 0)
(-0.201877 0.369763 0)
(-0.292394 0.387531 0)
(-0.381025 0.373597 0)
(-0.462459 0.332469 0)
(-0.532417 0.268289 0)
(-0.587376 0.18501 0)
(-0.62426 0.0868237 0)
(-0.640309 -0.021278 0)
(-0.633133 -0.132967 0)
(-0.601003 -0.240177 0)
(-0.543421 -0.333003 0)
(-0.461989 -0.400129 0)
(-0.361448 -0.430051 0)
(-0.250445 -0.413273 0)
(-0.141739 -0.345249 0)
(-0.0536055 -0.229391 0)
(-0.00870705 -0.0797594 0)
(-0.00946381 0.111508 0)
(-0.0514159 0.281969 0)
(-0.128393 0.397397 0)
(-0.221504 0.461472 0)
(-0.318814 0.480713 0)
(-0.413348 0.46193 0)
(-0.500004 0.411202 0)
(-0.574918 0.333673 0)
(-0.634999 0.233849 0)
(-0.67745 0.116193 0)
(-0.699476 -0.0141279 0)
(-0.698226 -0.150471 0)
(-0.67101 -0.284018 0)
(-0.615892 -0.403325 0)
(-0.532776 -0.494406 0)
(-0.424936 -0.541796 0)
(-0.300512 -0.53106 0)
(-0.173657 -0.452776 0)
(-0.0671995 -0.307383 0)
(-0.0113075 -0.109999 0)
(-0.0105416 0.139733 0)
(-0.0565593 0.348327 0)
(-0.139811 0.485836 0)
(-0.238836 0.55943 0)
(-0.34059 0.579145 0)
(-0.438139 0.554614 0)
(-0.526946 0.493854 0)
(-0.603958 0.403136 0)
(-0.666905 0.287444 0)
(-0.713633 0.151261 0)
(-0.741646 -0.000480621 0)
(-0.747868 -0.161359 0)
(-0.728708 -0.322409 0)
(-0.680565 -0.471177 0)
(-0.601005 -0.591201 0)
(-0.490738 -0.662554 0)
(-0.356033 -0.664291 0)
(-0.211348 -0.579472 0)
(-0.0843143 -0.402589 0)
(-0.0148564 -0.14815 0)
(-0.0118219 0.170753 0)
(-0.0621011 0.420173 0)
(-0.150987 0.579771 0)
(-0.253892 0.661361 0)
(-0.356718 0.679683 0)
(-0.452985 0.648006 0)
(-0.539246 0.576721 0)
(-0.613768 0.473361 0)
(-0.6756 0.343302 0)
(-0.723719 0.190773 0)
(-0.756397 0.0200189 0)
(-0.770772 -0.163417 0)
(-0.762661 -0.351263 0)
(-0.72681 -0.530978 0)
(-0.65794 -0.68436 0)
(-0.552963 -0.787031 0)
(-0.414314 -0.810118 0)
(-0.254652 -0.725793 0)
(-0.105758 -0.517845 0)
(-0.0197528 -0.196439 0)
(-0.01365 0.205051 0)
(-0.0690035 0.497552 0)
(-0.163029 0.677756 0)
(-0.26706 0.764094 0)
(-0.366139 0.77777 0)
(-0.454951 0.736731 0)
(-0.531887 0.654203 0)
(-0.597193 0.539088 0)
(-0.651815 0.397042 0)
(-0.696408 0.231766 0)
(-0.730589 0.0463622 0)
(-0.752328 -0.155203 0)
(-0.757455 -0.36637 0)
(-0.739471 -0.575854 0)
(-0.690131 -0.765166 0)
(-0.601452 -0.906421 0)
(-0.469622 -0.962117 0)
(-0.302081 -0.889816 0)
(-0.132347 -0.65557 0)
(-0.0265949 -0.257732 0)
(-0.0167366 0.243959 0)
(-0.0790849 0.581166 0)
(-0.177865 0.777982 0)
(-0.279011 0.863133 0)
(-0.367363 0.866917 0)
(-0.440048 0.813194 0)
(-0.498372 0.718401 0)
(-0.545352 0.592779 0)
(-0.584409 0.442069 0)
(-0.618377 0.269168 0)
(-0.64877 0.0756506 0)
(-0.67509 -0.136716 0)
(-0.694052 -0.364129 0)
(-0.698827 -0.598203 0)
(-0.678775 -0.822394 0)
(-0.620561 -1.00762 0)
(-0.511741 -1.10864 0)
(-0.349815 -1.06537 0)
(-0.164746 -0.816781 0)
(-0.0363034 -0.335738 0)
(-0.0224592 0.290457 0)
(-0.0954539 0.672658 0)
(-0.198125 0.877748 0)
(-0.289806 0.951767 0)
(-0.357027 0.937867 0)
(-0.401587 0.867009 0)
(-0.429197 0.758844 0)
(-0.446463 0.62457 0)
(-0.459701 0.469616 0)
(-0.47418 0.295775 0)
(-0.493622 0.102837 0)
(-0.519621 -0.110005 0)
(-0.550747 -0.342509 0)
(-0.581239 -0.590808 0)
(-0.599608 -0.843117 0)
(-0.588016 -1.07305 0)
(-0.524029 -1.2312 0)
(-0.389903 -1.23937 0)
(-0.202893 -0.999199 0)
(-0.0502241 -0.435212 0)
(-0.0332839 0.350449 0)
(-0.122729 0.774435 0)
(-0.225757 0.971946 0)
(-0.295876 1.01936 0)
(-0.325996 0.977381 0)
(-0.326201 0.884483 0)
(-0.308319 0.762595 0)
(-0.283086 0.622816 0)
(-0.259645 0.469501 0)
(-0.245405 0.302957 0)
(-0.246067 0.12112 0)
(-0.26543 -0.0793621 0)
(-0.304637 -0.30201 0)
(-0.360613 -0.548529 0)
(-0.423586 -0.814639 0)
(-0.474062 -1.08182 0)
(-0.48082 -1.30358 0)
(-0.40696 -1.38854 0)
(-0.244081 -1.19379 0)
(-0.0698547 -0.561771 0)
(-0.0528692 0.434814 0)
(-0.16556 0.887788 0)
(-0.256601 1.04923 0)
(-0.281778 1.0482 0)
(-0.250466 0.966666 0)
(-0.185729 0.848554 0)
(-0.106509 0.715308 0)
(-0.0271158 0.57581 0)
(0.0415987 0.432108 0)
(0.0912974 0.282582 0)
(0.115347 0.123461 0)
(0.108411 -0.0505777 0)
(0.0667283 -0.246113 0)
(-0.0105736 -0.470206 0)
(-0.11855 -0.727605 0)
(-0.241149 -1.01287 0)
(-0.343948 -1.29275 0)
(-0.372115 -1.4762 0)
(-0.277628 -1.37946 0)
(-0.0949014 -0.721638 0)
(-0.0837539 0.563631 0)
(-0.220319 1.00569 0)
(-0.263324 1.08174 0)
(-0.200253 1.00678 0)
(-0.0741855 0.879071 0)
(0.0766302 0.7396 0)
(0.228566 0.603755 0)
(0.366855 0.475054 0)
(0.481798 0.351833 0)
(0.566518 0.230276 0)
(0.615365 0.105404 0)
(0.622962 -0.028935 0)
(0.583878 -0.18063 0)
(0.493117 -0.360034 0)
(0.348322 -0.579714 0)
(0.155717 -0.849888 0)
(-0.058266 -1.16193 0)
(-0.232992 -1.44918 0)
(-0.273104 -1.51444 0)
(-0.116386 -0.921641 0)
(-0.112815 0.764555 0)
(-0.243363 1.08897 0)
(-0.14912 1.00494 0)
(0.0693871 0.842404 0)
(0.320699 0.681929 0)
(0.563898 0.54148 0)
(0.781519 0.422828 0)
(0.965314 0.321745 0)
(1.11135 0.232564 0)
(1.21731 0.149869 0)
(1.28074 0.0685581 0)
(1.29808 -0.0167668 0)
(1.26397 -0.112858 0)
(1.1707 -0.229568 0)
(1.00851 -0.382126 0)
(0.768989 -0.592397 0)
(0.455075 -0.881895 0)
(0.103236 -1.2384 0)
(-0.156312 -1.51345 0)
(-0.0949294 -1.14386 0)
(-0.0148169 0.961674 0)
(-0.015684 1.0028 0)
(0.364027 0.733677 0)
(0.785039 0.526611 0)
(1.14031 0.382204 0)
(1.4294 0.278803 0)
(1.66152 0.203451 0)
(1.84322 0.146583 0)
(1.9798 0.101067 0)
(2.075 0.0618879 0)
(2.13046 0.0253546 0)
(2.14544 -0.0117498 0)
(2.11637 -0.0531734 0)
(2.03576 -0.104602 0)
(1.89041 -0.176482 0)
(1.65946 -0.289266 0)
(1.31189 -0.480421 0)
(0.813875 -0.798722 0)
(0.269973 -1.21403 0)
(0.126458 -1.20004 0)
(1.06749 0.523563 0)
(1.37782 0.462789 0)
(1.93067 0.289332 0)
(2.35712 0.178078 0)
(2.62778 0.112551 0)
(2.80837 0.0724023 0)
(2.93576 0.0471387 0)
(3.02618 0.0306126 0)
(3.0886 0.019002 0)
(3.12841 0.0100128 0)
(3.14834 0.00224452 0)
(3.14913 -0.00527783 0)
(3.12961 -0.0135599 0)
(3.08617 -0.0240417 0)
(3.01073 -0.0396568 0)
(2.88636 -0.067301 0)
(2.6734 -0.123622 0)
(2.27251 -0.24396 0)
(1.63405 -0.463624 0)
(1.1916 -0.565571 0)
)
;

boundaryField
{
    movingWall
    {
        type            fixedValue;
        value           uniform (3.7 0 0);
    }
    fixedWalls
    {
        type            noSlip;
    }
    frontAndBack
    {
        type            empty;
    }
}


// ************************************************************************* //
