/*--------------------------------*- C++ -*----------------------------------*\
  =========                 |
  \\      /  F ield         | OpenFOAM: The Open Source CFD Toolbox
   \\    /   O peration     | Website:  https://openfoam.org
    \\  /    A nd           | Version:  8
     \\/     M anipulation  |
\*---------------------------------------------------------------------------*/
FoamFile
{
    version     2.0;
    format      ascii;
    class       surfaceScalarField;
    location    "0.2";
    object      phi;
}
// * * * * * * * * * * * * * * * * * * * * * * * * * * * * * * * * * * * * * //

dimensions      [0 3 -1 0 0 0 0];

internalField   nonuniform List<scalar> 
760
(
5.61117e-08
-5.63527e-08
-1.14012e-07
1.70136e-07
-5.19134e-07
4.05121e-07
-1.0829e-06
5.63763e-07
-1.72391e-06
6.41011e-07
-2.37019e-06
6.4628e-07
-2.96051e-06
5.90332e-07
-3.44287e-06
4.82362e-07
-3.77316e-06
3.30283e-07
-3.91607e-06
1.42911e-07
-3.84855e-06
-6.75146e-08
-3.56504e-06
-2.83516e-07
-3.08293e-06
-4.82106e-07
-2.44655e-06
-6.36381e-07
-1.72734e-06
-7.19209e-07
-1.0186e-06
-7.08738e-07
-4.23586e-07
-5.95016e-07
-3.70203e-08
-3.86563e-07
8.46911e-08
-1.21706e-07
8.46967e-08
-1.67434e-07
1.1109e-07
-8.30798e-07
8.33501e-07
-1.94788e-06
1.52221e-06
-3.37902e-06
1.9949e-06
-4.96118e-06
2.22318e-06
-6.5365e-06
2.2216e-06
-7.96257e-06
2.0164e-06
-9.11543e-06
1.63523e-06
-9.89151e-06
1.10636e-06
-1.02118e-05
4.63192e-07
-1.00294e-05
-2.49895e-07
-9.33938e-06
-9.73556e-07
-8.18801e-06
-1.63347e-06
-6.67856e-06
-2.14583e-06
-4.96909e-06
-2.42868e-06
-3.25923e-06
-2.41859e-06
-1.76362e-06
-2.09063e-06
-6.72223e-07
-1.47796e-06
-9.86152e-08
-6.95317e-07
-1.39151e-08
-4.33389e-07
5.44487e-07
-1.62784e-06
2.02794e-06
-3.42258e-06
3.31695e-06
-5.60996e-06
4.18229e-06
-7.96833e-06
4.58155e-06
-1.0284e-05
4.53729e-06
-1.23621e-05
4.09452e-06
-1.40318e-05
3.30488e-06
-1.51504e-05
2.225e-06
-1.56105e-05
9.23289e-07
-1.53495e-05
-5.10903e-07
-1.43618e-05
-1.96127e-06
-1.27101e-05
-3.28512e-06
-1.05325e-05
-4.32345e-06
-8.03973e-06
-4.92144e-06
-5.49944e-06
-4.95888e-06
-3.20337e-06
-4.3867e-06
-1.41933e-06
-3.26199e-06
-3.33908e-07
-1.78074e-06
-3.47823e-07
-6.76248e-07
1.22073e-06
-2.38194e-06
3.73364e-06
-4.82091e-06
5.75593e-06
-7.70366e-06
7.06504e-06
-1.0753e-05
7.63088e-06
-1.37127e-05
7.49698e-06
-1.63523e-05
6.73418e-06
-1.84704e-05
5.42297e-06
-1.98982e-05
3.6528e-06
-2.0507e-05
1.53207e-06
-2.02188e-05
-7.99106e-07
-1.902e-05
-3.16005e-06
-1.69753e-05
-5.32984e-06
-1.42379e-05
-7.0609e-06
-1.1051e-05
-8.10835e-06
-7.73468e-06
-8.27516e-06
-4.65334e-06
-7.46803e-06
-2.16413e-06
-5.75121e-06
-5.55983e-07
-3.38888e-06
-9.03807e-07
-8.93235e-07
2.11396e-06
-3.07478e-06
5.91519e-06
-6.11793e-06
8.79908e-06
-9.64779e-06
1.05949e-05
-1.3333e-05
1.13161e-05
-1.68822e-05
1.10461e-05
-2.00399e-05
9.89189e-06
-2.25846e-05
7.9677e-06
-2.43293e-05
5.39749e-06
-2.51267e-05
2.32952e-06
-2.48799e-05
-1.04589e-06
-2.3557e-05
-4.483e-06
-2.12086e-05
-7.6782e-06
-1.79851e-05
-1.02844e-05
-1.41464e-05
-1.1947e-05
-1.00578e-05
-1.23637e-05
-6.16246e-06
-1.13634e-05
-2.9275e-06
-8.98617e-06
-7.7243e-07
-5.54396e-06
-1.67624e-06
-1.08866e-06
3.20263e-06
-3.70794e-06
8.53447e-06
-7.31113e-06
1.24023e-05
-1.1441e-05
1.47248e-05
-1.57156e-05
1.55907e-05
-1.98147e-05
1.51452e-05
-2.34664e-05
1.35436e-05
-2.64375e-05
1.09388e-05
-2.85284e-05
7.48845e-06
-2.95748e-05
3.3759e-06
-2.94557e-05
-1.16501e-06
-2.81093e-05
-5.8294e-06
-2.55552e-05
-1.02323e-05
-2.19205e-05
-1.39191e-05
-1.74642e-05
-1.64033e-05
-1.25883e-05
-1.72397e-05
-7.8216e-06
-1.61301e-05
-3.76609e-06
-1.30417e-05
-1.00601e-06
-8.30405e-06
-2.68225e-06
-1.26595e-06
4.46858e-06
-4.28458e-06
1.15531e-05
-8.39877e-06
1.65164e-05
-1.30744e-05
1.94004e-05
-1.78848e-05
2.04011e-05
-2.24885e-05
1.97489e-05
-2.66064e-05
1.76614e-05
-3.00024e-05
1.43348e-05
-3.24713e-05
9.95741e-06
-3.38342e-05
4.7388e-06
-3.39429e-05
-1.05636e-06
-3.26949e-05
-7.07736e-06
-3.00604e-05
-1.28668e-05
-2.61192e-05
-1.78603e-05
-2.11041e-05
-2.14185e-05
-1.54357e-05
-2.2908e-05
-9.72936e-06
-2.18364e-05
-4.74669e-06
-1.80244e-05
-1.28278e-06
-1.1768e-05
-3.96503e-06
-1.42705e-06
5.89563e-06
-4.8058e-06
1.49318e-05
-9.37408e-06
2.10847e-05
-1.45259e-05
2.45523e-05
-1.97971e-05
2.56723e-05
-2.48349e-05
2.47866e-05
-2.93643e-05
2.21909e-05
-3.31587e-05
1.81292e-05
-3.60175e-05
1.28162e-05
-3.77541e-05
6.47532e-06
-3.8194e-05
-6.16389e-07
-3.71875e-05
-8.08387e-06
-3.46377e-05
-1.54167e-05
-3.05487e-05
-2.19492e-05
-2.50909e-05
-2.68763e-05
-1.86699e-05
-2.9329e-05
-1.19711e-05
-2.85352e-05
-5.93589e-06
-2.40596e-05
-1.62992e-06
-1.60739e-05
-5.59495e-06
-1.57389e-06
7.46952e-06
-5.27293e-06
1.86309e-05
-1.02278e-05
2.60396e-05
-1.57625e-05
3.0087e-05
-2.13835e-05
3.12933e-05
-2.67398e-05
3.01429e-05
-3.15762e-05
2.70274e-05
-3.56916e-05
2.22446e-05
-3.89059e-05
1.60305e-05
-4.10383e-05
8.60775e-06
-4.18975e-05
2.42773e-07
-4.12864e-05
-8.69491e-06
-3.90289e-05
-1.76741e-05
-3.50237e-05
-2.59544e-05
-2.93313e-05
-3.25688e-05
-2.22855e-05
-3.63748e-05
-1.45986e-05
-3.62221e-05
-7.39323e-06
-3.12649e-05
-2.07567e-06
-2.13915e-05
-7.67061e-06
-1.712e-06
9.18152e-06
-5.6952e-06
2.26141e-05
-1.09576e-05
3.13019e-05
-1.67497e-05
3.58792e-05
-2.25586e-05
3.71021e-05
-2.80522e-05
3.56366e-05
-3.3016e-05
3.19911e-05
-3.7296e-05
2.65246e-05
-4.07551e-05
1.94896e-05
-4.32404e-05
1.1093e-05
-4.45623e-05
1.56468e-06
-4.44893e-05
-8.76793e-06
-4.27641e-05
-1.93993e-05
-3.91558e-05
-2.95628e-05
-3.35604e-05
-3.81641e-05
-2.61586e-05
-4.37766e-05
-1.76044e-05
-4.47763e-05
-9.16408e-06
-3.97052e-05
-2.6507e-06
-2.79049e-05
-1.03213e-05
-1.85662e-06
1.10381e-05
-6.10209e-06
2.68595e-05
-1.15823e-05
3.67821e-05
-1.74649e-05
4.17618e-05
-2.32315e-05
4.28687e-05
-2.8594e-05
4.09991e-05
-3.34057e-05
3.68028e-05
-3.75881e-05
3.0707e-05
-4.10751e-05
2.29766e-05
-4.3771e-05
1.37889e-05
-4.55187e-05
3.31238e-06
-4.60795e-05
-8.20715e-06
-4.51317e-05
-2.03471e-05
-4.23057e-05
-3.23887e-05
-3.72834e-05
-4.31864e-05
-2.99901e-05
-5.107e-05
-2.08842e-05
-5.38822e-05
-1.12679e-05
-4.93215e-05
-3.39034e-06
-3.57824e-05
-1.37116e-05
-2.04265e-06
1.30808e-05
-6.56052e-06
3.13774e-05
-1.21585e-05
4.23801e-05
-1.79084e-05
4.75117e-05
-2.33127e-05
4.8273e-05
-2.8165e-05
4.58514e-05
-3.24235e-05
4.10613e-05
-3.61181e-05
3.44016e-05
-3.92858e-05
2.61442e-05
-4.19221e-05
1.64252e-05
-4.39414e-05
5.33165e-06
-4.51406e-05
-7.00789e-06
-4.51736e-05
-2.03142e-05
-4.35528e-05
-3.40096e-05
-3.97188e-05
-4.70204e-05
-3.32375e-05
-5.75513e-05
-2.41819e-05
-6.29378e-05
-1.36759e-05
-5.98275e-05
-4.33718e-06
-4.51211e-05
-1.80488e-05
-2.34066e-06
1.54214e-05
-7.19532e-06
3.62321e-05
-1.27894e-05
4.79742e-05
-1.80965e-05
5.28189e-05
-2.26954e-05
5.28719e-05
-2.6522e-05
4.9678e-05
-2.96877e-05
4.4227e-05
-3.23677e-05
3.70815e-05
-3.4732e-05
2.85086e-05
-3.68991e-05
1.85924e-05
-3.88945e-05
7.32701e-06
-4.06036e-05
-5.29879e-06
-4.17194e-05
-1.91983e-05
-4.16969e-05
-3.40321e-05
-3.97584e-05
-4.8959e-05
-3.50393e-05
-6.22703e-05
-2.70099e-05
-7.09673e-05
-1.62696e-05
-7.05677e-05
-5.54247e-06
-5.58483e-05
-2.35913e-05
-2.88224e-06
1.83037e-05
-8.20502e-06
4.15549e-05
-1.36028e-05
5.3372e-05
-1.80019e-05
5.7218e-05
-2.11735e-05
5.60435e-05
-2.32915e-05
5.17959e-05
-2.46817e-05
4.56173e-05
-2.56982e-05
3.80981e-05
-2.66638e-05
2.94742e-05
-2.7837e-05
1.97656e-05
-2.93813e-05
8.87132e-06
-3.13194e-05
-3.36074e-06
-3.34612e-05
-1.70565e-05
-3.53076e-05
-3.21857e-05
-3.59606e-05
-4.8306e-05
-3.41422e-05
-6.40887e-05
-2.85379e-05
-7.65716e-05
-1.8759e-05
-8.03466e-05
-7.05732e-06
-6.755e-05
-3.06486e-05
-3.89339e-06
2.21971e-05
-9.83983e-06
4.75013e-05
-1.46312e-05
5.81633e-05
-1.73579e-05
5.99447e-05
-1.82116e-05
5.68972e-05
-1.77422e-05
5.13266e-05
-1.65534e-05
4.44285e-05
-1.51946e-05
3.67392e-05
-1.41336e-05
2.84132e-05
-1.37558e-05
1.93878e-05
-1.43596e-05
9.47508e-06
-1.61274e-05
-1.59292e-06
-1.90547e-05
-1.41293e-05
-2.2819e-05
-2.84213e-05
-2.65873e-05
-4.45377e-05
-2.8835e-05
-6.18409e-05
-2.74318e-05
-7.79748e-05
-2.05164e-05
-8.7262e-05
-8.88104e-06
-7.91853e-05
-3.95297e-05
-5.69772e-06
2.78948e-05
-1.2216e-05
5.40196e-05
-1.5413e-05
6.13603e-05
-1.51466e-05
5.96783e-05
-1.24187e-05
5.41692e-05
-8.30684e-06
4.72147e-05
-3.7151e-06
3.98367e-05
6.48851e-07
3.23753e-05
4.23155e-06
2.48305e-05
6.58186e-06
1.70375e-05
7.31781e-06
8.73913e-06
6.12149e-06
-3.96605e-07
2.78839e-06
-1.07962e-05
-2.65422e-06
-2.29787e-05
-9.68609e-06
-3.75059e-05
-1.68951e-05
-5.46319e-05
-2.16124e-05
-7.32575e-05
-2.0236e-05
-8.86385e-05
-1.07723e-05
-8.8649e-05
-5.0302e-05
-8.53189e-06
3.64267e-05
-1.45574e-05
6.00451e-05
-1.38659e-05
6.06688e-05
-8.42524e-06
5.42376e-05
-5.17093e-07
4.62611e-05
8.24045e-06
3.84572e-05
1.67738e-05
3.13034e-05
2.43726e-05
2.47765e-05
3.05386e-05
1.86645e-05
3.48766e-05
1.26996e-05
3.70239e-05
6.59179e-06
3.66052e-05
2.20506e-08
3.32586e-05
-7.44949e-06
2.66671e-05
-1.63872e-05
1.68083e-05
-2.76471e-05
4.4619e-06
-4.22855e-05
-7.90435e-06
-6.08912e-05
-1.53288e-05
-8.1214e-05
-1.17771e-05
-9.22007e-05
-6.20791e-05
-1.16501e-05
4.80768e-05
-1.26878e-05
6.10829e-05
-3.47306e-06
5.14541e-05
9.9868e-06
4.07777e-05
2.42779e-05
3.197e-05
3.77997e-05
2.49354e-05
4.97813e-05
1.93217e-05
5.98383e-05
1.47195e-05
6.775e-05
1.07528e-05
7.33326e-05
7.117e-06
7.63658e-05
3.55853e-06
7.65476e-05
-1.5975e-07
7.34502e-05
-4.35209e-06
6.65055e-05
-9.44247e-06
5.50646e-05
-1.62062e-05
3.87603e-05
-2.59812e-05
1.86137e-05
-4.07446e-05
-7.42471e-07
-6.18578e-05
-9.2772e-06
-8.3666e-05
-7.13563e-05
-7.4926e-06
5.55694e-05
9.10936e-06
4.44809e-05
3.2657e-05
2.79065e-05
5.46893e-05
1.87454e-05
7.35034e-05
1.31559e-05
8.90559e-05
9.38285e-06
0.000101621
6.75632e-06
0.000111497
4.84356e-06
0.000118907
3.34354e-06
0.000123962
2.06183e-06
0.000126651
8.68858e-07
0.000126834
-3.42564e-07
0.000124166
-1.68436e-06
0.000118052
-3.32804e-06
0.000107466
-5.62042e-06
9.0834e-05
-9.34895e-06
6.64381e-05
-1.63488e-05
3.47312e-05
-3.01509e-05
4.88799e-06
-5.38227e-05
-6.64683e-05
5.55694e-05
0.00010005
0.000127957
0.000146702
0.000159858
0.000169241
0.000175997
0.000180841
0.000184184
0.000186246
0.000187115
0.000186772
0.000185088
0.00018176
0.00017614
0.000166791
0.000150442
0.000120291
6.64683e-05
)
;

boundaryField
{
    movingWall
    {
        type            calculated;
        value           uniform 0;
    }
    fixedWalls
    {
        type            calculated;
        value           uniform 0;
    }
    frontAndBack
    {
        type            empty;
        value           nonuniform List<scalar> 0();
    }
}


// ************************************************************************* //
