/*--------------------------------*- C++ -*----------------------------------*\
  =========                 |
  \\      /  F ield         | OpenFOAM: The Open Source CFD Toolbox
   \\    /   O peration     | Website:  https://openfoam.org
    \\  /    A nd           | Version:  8
     \\/     M anipulation  |
\*---------------------------------------------------------------------------*/
FoamFile
{
    version     2.0;
    format      ascii;
    class       volScalarField;
    location    "0.3";
    object      p;
}
// * * * * * * * * * * * * * * * * * * * * * * * * * * * * * * * * * * * * * //

dimensions      [0 2 -2 0 0 0 0];

internalField   nonuniform List<scalar> 
400
(
4.67232e-06
-0.0245707
-0.0536796
-0.0755259
-0.0838554
-0.0760296
-0.0517064
-0.0120328
0.0407022
0.103099
0.170603
0.237598
0.297782
0.344889
0.373745
0.381506
0.368871
0.341011
0.307909
0.283768
0.0244285
-0.00102677
-0.0237577
-0.0385924
-0.0430173
-0.0352567
-0.014898
0.0173523
0.0598757
0.110119
0.164546
0.218724
0.267645
0.306341
0.330742
0.33866
0.330705
0.310669
0.284488
0.259966
0.0552453
0.0201205
-0.00418684
-0.0174946
-0.0210621
-0.0142007
0.00324751
0.0307344
0.0671036
0.110435
0.157889
0.205706
0.249454
0.28456
0.307104
0.314729
0.307551
0.288247
0.259491
0.225119
0.0809537
0.0329698
0.0032219
-0.0116951
-0.0163117
-0.0109268
0.00430663
0.0289028
0.062062
0.102358
0.147427
0.193838
0.237238
0.272834
0.296168
0.304112
0.295963
0.273474
0.236943
0.188215
0.0932967
0.0323896
-0.00368057
-0.021226
-0.027605
-0.0239143
-0.0105166
0.0122216
0.0438801
0.0835139
0.129174
0.177622
0.224351
0.263987
0.291081
0.301243
0.29259
0.265909
0.219531
0.154343
0.0858023
0.012706
-0.0296788
-0.0501528
-0.0585387
-0.0565478
-0.044615
-0.0228764
0.00871342
0.0497566
0.0987554
0.152646
0.206644
0.25453
0.289421
0.305106
0.297984
0.267566
0.210218
0.126478
0.0529721
-0.0313699
-0.079675
-0.102993
-0.113365
-0.112986
-0.102233
-0.0808768
-0.0482603
-0.00407972
0.0507755
0.113538
0.179167
0.240424
0.288559
0.314836
0.313129
0.280963
0.21217
0.107113
-0.010194
-0.10479
-0.158377
-0.184158
-0.196291
-0.197405
-0.187728
-0.166515
-0.132302
-0.0838272
-0.0210671
0.0538147
0.135743
0.216458
0.284959
0.329156
0.339222
0.309421
0.22966
0.0997878
-0.108417
-0.212344
-0.27037
-0.297898
-0.311293
-0.313689
-0.305133
-0.284231
-0.248474
-0.195292
-0.123292
-0.0335092
0.0694401
0.176547
0.274368
0.34657
0.378066
0.357807
0.269239
0.110588
-0.246235
-0.358773
-0.420049
-0.44797
-0.461524
-0.464606
-0.45714
-0.436983
-0.400323
-0.342864
-0.261251
-0.154643
-0.0263768
0.11448
0.252237
0.365612
0.432413
0.433304
0.341093
0.149935
-0.428231
-0.549023
-0.611575
-0.63718
-0.648478
-0.650646
-0.643659
-0.624558
-0.587967
-0.527406
-0.436884
-0.312757
-0.155935
0.0256692
0.214994
0.385682
0.506662
0.54645
0.460848
0.235088
-0.659812
-0.788919
-0.848973
-0.866853
-0.870956
-0.868621
-0.860116
-0.841589
-0.805807
-0.74364
-0.645776
-0.504786
-0.317781
-0.0897684
0.162608
0.40893
0.608275
0.712704
0.652133
0.394028
-0.949297
-1.08662
-1.13643
-1.13617
-1.12386
-1.11016
-1.09577
-1.0757
-1.04045
-0.977738
-0.874306
-0.718058
-0.500934
-0.222961
0.102404
0.443422
0.750234
0.95483
0.950343
0.671914
-1.31296
-1.45545
-1.47868
-1.44122
-1.39678
-1.36032
-1.33251
-1.30649
-1.26977
-1.20627
-1.09826
-0.928331
-0.682176
-0.352822
0.0529108
0.506739
0.954055
1.30602
1.40829
1.14245
-1.78653
-1.91875
-1.8807
-1.77298
-1.67214
-1.59641
-1.54452
-1.506
-1.46401
-1.3978
-1.28465
-1.10149
-0.827162
-0.446202
0.0447077
0.627314
1.25102
1.81175
2.10271
1.92598
-2.44873
-2.51684
-2.34566
-2.11405
-1.92308
-1.78762
-1.69957
-1.6415
-1.59
-1.51832
-1.39824
-1.20089
-0.898062
-0.464973
0.114817
0.84057
1.67913
2.52674
3.13566
3.20826
-3.46973
-3.31449
-2.87239
-2.4385
-2.11545
-1.89884
-1.76475
-1.683
-1.62008
-1.54182
-1.41391
-1.20172
-0.869834
-0.383464
0.289925
1.17513
2.2727
3.50578
4.63351
5.26983
-5.27365
-4.39826
-3.42543
-2.69311
-2.19868
-1.88834
-1.70948
-1.61003
-1.54222
-1.46325
-1.33304
-1.11176
-0.757514
-0.224303
0.540513
1.59774
3.00288
4.75515
6.77126
8.68923
-9.06296
-5.79706
-3.72259
-2.62932
-1.99799
-1.64071
-1.46305
-1.38546
-1.34511
-1.29307
-1.18674
-0.984268
-0.641036
-0.102609
0.703142
1.88171
3.58107
6.00601
9.66366
14.7839
-16.2609
-7.13958
-3.16591
-1.85174
-1.28957
-1.03555
-0.966386
-0.988917
-1.03556
-1.0596
-1.0227
-0.887531
-0.612338
-0.145834
0.58614
1.71258
3.49072
6.51049
12.5261
23.7045
)
;

boundaryField
{
    movingWall
    {
        type            zeroGradient;
    }
    fixedWalls
    {
        type            zeroGradient;
    }
    frontAndBack
    {
        type            empty;
    }
}


// ************************************************************************* //
