/*--------------------------------*- C++ -*----------------------------------*\
  =========                 |
  \\      /  F ield         | OpenFOAM: The Open Source CFD Toolbox
   \\    /   O peration     | Website:  https://openfoam.org
    \\  /    A nd           | Version:  8
     \\/     M anipulation  |
\*---------------------------------------------------------------------------*/
FoamFile
{
    version     2.0;
    format      ascii;
    class       volScalarField;
    location    "0.2";
    object      p;
}
// * * * * * * * * * * * * * * * * * * * * * * * * * * * * * * * * * * * * * //

dimensions      [0 2 -2 0 0 0 0];

internalField   nonuniform List<scalar> 
400
(
1.85128e-05
-0.0186406
-0.0409295
-0.0576939
-0.0639421
-0.0575419
-0.0382704
-0.00717604
0.0337557
0.0817188
0.133139
0.183796
0.2291
0.264585
0.286585
0.293052
0.284393
0.264182
0.239572
0.221104
0.0185818
-0.000718902
-0.0181293
-0.0295256
-0.0327829
-0.0264517
-0.0102543
0.0151223
0.0482401
0.0869677
0.128514
0.169541
0.206407
0.235581
0.254201
0.26071
0.255481
0.241111
0.221693
0.202877
0.0422
0.0155465
-0.00312497
-0.0134067
-0.016005
-0.0102976
0.00378664
0.0256625
0.0542211
0.0877886
0.124082
0.16026
0.193121
0.219458
0.236561
0.24279
0.238172
0.22446
0.203205
0.176932
0.0623319
0.0258365
0.00290156
-0.00866844
-0.0120036
-0.00722938
0.00545627
0.0254603
0.0518784
0.0833465
0.117893
0.152907
0.185269
0.211671
0.229098
0.235422
0.230112
0.214207
0.187338
0.150335
0.0729721
0.0264773
-0.00143786
-0.0150334
-0.0195301
-0.0156702
-0.00386677
0.0152912
0.0410866
0.072421
0.107557
0.143989
0.178502
0.207441
0.227187
0.234832
0.229076
0.210244
0.176358
0.127294
0.069491
0.0133901
-0.01954
-0.035307
-0.0409714
-0.0377729
-0.0262615
-0.006969
0.0196043
0.0526343
0.0906015
0.131055
0.170567
0.204946
0.229695
0.240791
0.235869
0.214385
0.172795
0.110428
0.0479349
-0.0172785
-0.0549539
-0.0726916
-0.0792526
-0.0762982
-0.0644433
-0.0440894
-0.01545
0.0209922
0.063993
0.111182
0.158886
0.202234
0.235572
0.253359
0.251716
0.228844
0.179305
0.101981
0.00457712
-0.0692729
-0.111218
-0.130434
-0.137376
-0.134114
-0.121281
-0.0990627
-0.0672758
-0.0259269
0.0241623
0.0808352
0.140248
0.19679
0.2434
0.272525
0.278122
0.25643
0.19929
0.10488
-0.0643455
-0.146448
-0.191997
-0.21187
-0.218374
-0.214071
-0.199596
-0.174839
-0.139073
-0.0916246
-0.0326475
0.0361788
0.111059
0.18573
0.251541
0.298395
0.317202
0.301099
0.237709
0.123753
-0.162808
-0.252942
-0.301116
-0.320266
-0.324979
-0.318518
-0.301569
-0.273648
-0.233308
-0.178935
-0.109666
-0.0262972
0.0678354
0.166121
0.25833
0.33134
0.371942
0.368504
0.301981
0.166084
-0.295284
-0.393462
-0.442604
-0.458559
-0.459091
-0.448567
-0.427832
-0.395961
-0.350586
-0.28883
-0.208386
-0.108622
0.00821494
0.135774
0.262614
0.372362
0.446594
0.466691
0.403191
0.243814
-0.467452
-0.573867
-0.620827
-0.629007
-0.621067
-0.603118
-0.576311
-0.539184
-0.488194
-0.418841
-0.326888
-0.209633
-0.067406
0.0946776
0.26486
0.42389
0.547355
0.607055
0.557778
0.375815
-0.687934
-0.802343
-0.840724
-0.832683
-0.808769
-0.777679
-0.740917
-0.696248
-0.638597
-0.561418
-0.45804
-0.323024
-0.153837
0.0469489
0.268838
0.491063
0.683399
0.805647
0.789988
0.592072
-0.972371
-1.09159
-1.10803
-1.06859
-1.0163
-0.963046
-0.910315
-0.854502
-0.788393
-0.702865
-0.588312
-0.435954
-0.239472
0.00259765
0.283279
0.583049
0.867922
1.08467
1.13555
0.941313
-1.35258
-1.46251
-1.4288
-1.3318
-1.23205
-1.14383
-1.06704
-0.995375
-0.918433
-0.823771
-0.69835
-0.529572
-0.306596
-0.0224839
0.322016
0.712993
1.11782
1.47293
1.64615
1.50409
-1.89474
-1.94911
-1.80743
-1.61032
-1.43645
-1.29737
-1.18768
-1.09569
-1.00608
-0.902035
-0.766572
-0.58295
-0.335326
-0.0101208
0.400953
0.895396
1.45099
2.00311
2.39093
2.40886
-2.73553
-2.60274
-2.24353
-1.88402
-1.60254
-1.39601
-1.24669
-1.1328
-1.03132
-0.91986
-0.77699
-0.58167
-0.312773
0.050909
0.52961
1.13919
1.88024
2.705
3.4552
3.85683
-4.20717
-3.48847
-2.70586
-2.10773
-1.68777
-1.40493
-1.21867
-1.08979
-0.984172
-0.872921
-0.730276
-0.531321
-0.249959
0.143358
0.684008
1.41464
2.37507
3.57014
4.95313
6.26855
-7.23861
-4.6279
-2.97376
-2.08622
-1.55539
-1.23499
-1.0499
-0.938821
-0.856017
-0.767986
-0.64714
-0.467194
-0.199963
0.189884
0.75187
1.56108
2.72249
4.38835
6.95957
10.6382
-12.8193
-5.73126
-2.59925
-1.52175
-1.03836
-0.799143
-0.699839
-0.667342
-0.652686
-0.624362
-0.558234
-0.431836
-0.219925
0.109611
0.606739
1.36289
2.55974
4.62949
8.94127
17.2187
)
;

boundaryField
{
    movingWall
    {
        type            zeroGradient;
    }
    fixedWalls
    {
        type            zeroGradient;
    }
    frontAndBack
    {
        type            empty;
    }
}


// ************************************************************************* //
