/*--------------------------------*- C++ -*----------------------------------*\
  =========                 |
  \\      /  F ield         | OpenFOAM: The Open Source CFD Toolbox
   \\    /   O peration     | Website:  https://openfoam.org
    \\  /    A nd           | Version:  8
     \\/     M anipulation  |
\*---------------------------------------------------------------------------*/
FoamFile
{
    version     2.0;
    format      ascii;
    class       surfaceScalarField;
    location    "0.2";
    object      phi;
}
// * * * * * * * * * * * * * * * * * * * * * * * * * * * * * * * * * * * * * //

dimensions      [0 3 -1 0 0 0 0];

internalField   nonuniform List<scalar> 
760
(
4.20342e-08
-4.21984e-08
-7.96953e-08
1.21736e-07
-3.74401e-07
2.94703e-07
-7.8739e-07
4.1299e-07
-1.25809e-06
4.70703e-07
-1.73173e-06
4.7364e-07
-2.16161e-06
4.29879e-07
-2.50895e-06
3.47342e-07
-2.74239e-06
2.33445e-07
-2.83847e-06
9.60732e-08
-2.78335e-06
-5.51167e-08
-2.57563e-06
-2.07722e-07
-2.22922e-06
-3.46409e-07
-1.77548e-06
-4.53744e-07
-1.26333e-06
-5.12147e-07
-7.56367e-07
-5.06961e-07
-3.25949e-07
-4.30418e-07
-3.99391e-08
-2.86011e-07
5.70191e-08
-9.69595e-08
5.70182e-08
-1.18021e-07
7.5831e-08
-5.95629e-07
5.99343e-07
-1.40715e-06
1.10623e-06
-2.45207e-06
1.45791e-06
-3.60925e-06
1.62789e-06
-4.75965e-06
1.62404e-06
-5.79598e-06
1.46621e-06
-6.62667e-06
1.17804e-06
-7.17795e-06
7.84717e-07
-7.39645e-06
3.14577e-07
-7.25344e-06
-1.9813e-07
-6.74994e-06
-7.11216e-07
-5.92177e-06
-1.17458e-06
-4.84232e-06
-1.5332e-06
-3.62104e-06
-1.73343e-06
-2.3954e-06
-1.7326e-06
-1.31461e-06
-1.5112e-06
-5.14486e-07
-1.08613e-06
-8.23873e-08
-5.29049e-07
-2.53703e-08
-3.0845e-07
3.84285e-07
-1.16914e-06
1.46003e-06
-2.47213e-06
2.40922e-06
-4.06719e-06
3.05297e-06
-5.78937e-06
3.35006e-06
-7.47769e-06
3.31236e-06
-8.98584e-06
2.97436e-06
-1.01879e-05
2.38012e-06
-1.09824e-05
1.57918e-06
-1.12963e-05
6.28543e-07
-1.10912e-05
-4.03283e-07
-1.0369e-05
-1.43337e-06
-9.17873e-06
-2.36488e-06
-7.61918e-06
-3.09275e-06
-5.83729e-06
-3.51532e-06
-4.0178e-06
-3.55208e-06
-2.36306e-06
-3.16594e-06
-1.06287e-06
-2.38632e-06
-2.57192e-07
-1.33473e-06
-2.82563e-07
-4.82103e-07
8.66384e-07
-1.71251e-06
2.69044e-06
-3.48457e-06
4.18129e-06
-5.58755e-06
5.15595e-06
-7.81414e-06
5.57665e-06
-9.97058e-06
5.46881e-06
-1.18836e-05
4.88735e-06
-1.34046e-05
3.90115e-06
-1.44137e-05
2.58825e-06
-1.48238e-05
1.03871e-06
-1.45873e-05
-6.39816e-07
-1.37028e-05
-2.31785e-06
-1.22231e-05
-3.84466e-06
-1.02597e-05
-5.05614e-06
-7.9832e-06
-5.79177e-06
-5.61443e-06
-5.92086e-06
-3.40419e-06
-5.37618e-06
-1.60233e-06
-4.18819e-06
-4.20229e-07
-2.51683e-06
-7.02792e-07
-6.38219e-07
1.5046e-06
-2.21621e-06
4.26844e-06
-4.43306e-06
6.39813e-06
-7.01355e-06
7.73644e-06
-9.70785e-06
8.27096e-06
-1.22938e-05
8.05479e-06
-1.45783e-05
7.17183e-06
-1.63977e-05
5.72049e-06
-1.76192e-05
3.80978e-06
-1.81444e-05
1.56397e-06
-1.79149e-05
-8.6933e-07
-1.69201e-05
-3.31264e-06
-1.5207e-05
-5.55774e-06
-1.28889e-05
-7.37429e-06
-1.01499e-05
-8.53074e-06
-7.24156e-06
-8.82922e-06
-4.46584e-06
-8.1519e-06
-2.14428e-06
-6.50975e-06
-5.76485e-07
-4.08462e-06
-1.27928e-06
-7.8162e-07
2.28622e-06
-2.68615e-06
6.17297e-06
-5.32367e-06
9.03565e-06
-8.35471e-06
1.07675e-05
-1.1488e-05
1.14042e-05
-1.44766e-05
1.10434e-05
-1.7113e-05
9.80828e-06
-1.92244e-05
7.83188e-06
-2.06698e-05
5.25519e-06
-2.13408e-05
2.23496e-06
-2.11658e-05
-1.04439e-06
-2.01184e-05
-4.36006e-06
-1.82298e-05
-7.44633e-06
-1.56029e-05
-1.00012e-05
-1.2425e-05
-1.17086e-05
-8.973e-06
-1.22812e-05
-5.60368e-06
-1.15212e-05
-2.72387e-06
-9.38956e-06
-7.40617e-07
-6.06788e-06
-2.01989e-06
-9.16678e-07
3.2029e-06
-3.12978e-06
8.38607e-06
-6.16352e-06
1.20694e-05
-9.61548e-06
1.42194e-05
-1.31555e-05
1.49442e-05
-1.65165e-05
1.44045e-05
-1.94831e-05
1.27749e-05
-2.18795e-05
1.02282e-05
-2.35616e-05
6.93728e-06
-2.44133e-05
3.08668e-06
-2.43483e-05
-1.10941e-06
-2.33181e-05
-5.39027e-06
-2.1327e-05
-9.43737e-06
-1.84533e-05
-1.28748e-05
-1.48727e-05
-1.52893e-05
-1.08771e-05
-1.62768e-05
-6.87839e-06
-1.55199e-05
-3.3824e-06
-1.28855e-05
-9.2905e-07
-8.52124e-06
-2.94894e-06
-1.04674e-06
4.24965e-06
-3.55299e-06
1.08923e-05
-6.95571e-06
1.54721e-05
-1.07899e-05
1.80536e-05
-1.46901e-05
1.88444e-05
-1.83762e-05
1.80906e-05
-2.1633e-05
1.60317e-05
-2.42908e-05
1.28861e-05
-2.62102e-05
8.85661e-06
-2.72722e-05
4.14868e-06
-2.73765e-05
-1.00502e-06
-2.6448e-05
-6.31883e-06
-2.44528e-05
-1.14325e-05
-2.1427e-05
-1.59007e-05
-1.75131e-05
-1.92032e-05
-1.29991e-05
-2.07908e-05
-8.34293e-06
-2.01761e-05
-4.16076e-06
-1.70677e-05
-1.15857e-06
-1.15234e-05
-4.10752e-06
-1.17503e-06
5.42468e-06
-3.96124e-06
1.36785e-05
-7.69996e-06
1.92108e-05
-1.18613e-05
2.22149e-05
-1.60496e-05
2.30327e-05
-1.99813e-05
2.20223e-05
-2.34538e-05
1.95042e-05
-2.63161e-05
1.57484e-05
-2.84448e-05
1.09853e-05
-2.97276e-05
5.43148e-06
-3.00554e-05
-6.77181e-07
-2.9325e-05
-7.04924e-06
-2.7455e-05
-1.33025e-05
-2.44191e-05
-1.89366e-05
-2.02976e-05
-2.33247e-05
-1.53416e-05
-2.57468e-05
-1.00315e-05
-2.54862e-05
-5.09574e-06
-2.20035e-05
-1.44642e-06
-1.51727e-05
-5.55394e-06
-1.30704e-06
6.73172e-06
-4.3642e-06
1.67357e-05
-8.39757e-06
2.32442e-05
-1.28065e-05
2.66238e-05
-1.7172e-05
2.73982e-05
-2.12213e-05
2.60716e-05
-2.47818e-05
2.30647e-05
-2.77388e-05
1.87054e-05
-3.00016e-05
1.32481e-05
-3.14791e-05
6.90895e-06
-3.20645e-05
-9.18019e-08
-3.16316e-05
-7.48213e-06
-3.00464e-05
-1.48877e-05
-2.72012e-05
-2.17818e-05
-2.30778e-05
-2.74482e-05
-1.7841e-05
-3.09836e-05
-1.19464e-05
-3.13808e-05
-6.21708e-06
-2.77328e-05
-1.81141e-06
-1.95784e-05
-7.36534e-06
-1.45478e-06
8.1865e-06
-4.78358e-06
2.00645e-05
-9.05916e-06
2.75198e-05
-1.36002e-05
3.11649e-05
-1.79765e-05
3.17745e-05
-2.1948e-05
3.00431e-05
-2.53961e-05
2.65128e-05
-2.82653e-05
2.15746e-05
-3.05193e-05
1.55021e-05
-3.21082e-05
8.49787e-06
-3.29456e-05
7.45578e-07
-3.28959e-05
-7.53191e-06
-3.17763e-05
-1.60073e-05
-2.93846e-05
-2.41735e-05
-2.55659e-05
-3.12668e-05
-2.03335e-05
-3.6216e-05
-1.40385e-05
-3.76758e-05
-7.5427e-06
-3.42286e-05
-2.27598e-06
-2.48451e-05
-9.64132e-06
-1.64364e-06
9.83014e-06
-5.26385e-06
2.36847e-05
-9.71226e-06
3.19682e-05
-1.42169e-05
3.56695e-05
-1.83601e-05
3.59177e-05
-2.19688e-05
3.36518e-05
-2.50111e-05
2.95551e-05
-2.75195e-05
2.4083e-05
-2.95369e-05
1.75195e-05
-3.1078e-05
1.0039e-05
-3.21004e-05
1.76803e-06
-3.24821e-05
-7.15017e-06
-3.20091e-05
-1.64803e-05
-3.03858e-05
-2.57969e-05
-2.72908e-05
-3.43618e-05
-2.25109e-05
-4.09959e-05
-1.61758e-05
-4.40109e-05
-9.06903e-06
-4.13354e-05
-2.86927e-06
-3.10449e-05
-1.25106e-05
-1.92364e-06
1.17538e-05
-5.88409e-06
2.76451e-05
-1.04015e-05
3.64856e-05
-1.46157e-05
3.98838e-05
-1.8172e-05
3.94739e-05
-2.10184e-05
3.64982e-05
-2.32533e-05
3.179e-05
-2.50284e-05
2.58581e-05
-2.64894e-05
1.89805e-05
-2.77378e-05
1.12874e-05
-2.88003e-05
2.83051e-06
-2.95986e-05
-6.35188e-06
-2.99205e-05
-1.61585e-05
-2.94019e-05
-2.63154e-05
-2.75505e-05
-3.62132e-05
-2.38609e-05
-4.46854e-05
-1.80935e-05
-4.97783e-05
-1.07501e-05
-4.86788e-05
-3.63094e-06
-3.81641e-05
-1.61415e-05
-2.38679e-06
1.41406e-05
-6.76389e-06
3.20222e-05
-1.11618e-05
4.08835e-05
-1.46845e-05
4.34065e-05
-1.71423e-05
4.19317e-05
-1.86876e-05
3.80435e-05
-1.96011e-05
3.27035e-05
-2.01814e-05
2.64384e-05
-2.06912e-05
1.94903e-05
-2.13296e-05
1.19258e-05
-2.22094e-05
3.71034e-06
-2.33269e-05
-5.23442e-06
-2.45181e-05
-1.49672e-05
-2.5407e-05
-2.54264e-05
-2.53711e-05
-3.62491e-05
-2.35916e-05
-4.6465e-05
-1.93116e-05
-5.40583e-05
-1.24511e-05
-5.55393e-05
-4.61185e-06
-4.60033e-05
-2.07534e-05
-3.18784e-06
1.73284e-05
-8.03517e-06
3.68696e-05
-1.19145e-05
4.47628e-05
-1.40835e-05
4.55755e-05
-1.47098e-05
4.2558e-05
-1.42641e-05
3.75978e-05
-1.32575e-05
3.16969e-05
-1.2143e-05
2.53239e-05
-1.12895e-05
1.86369e-05
-1.09807e-05
1.1617e-05
-1.14122e-05
4.14183e-06
-1.26726e-05
-3.97402e-06
-1.46961e-05
-1.29437e-05
-1.71807e-05
-2.29418e-05
-1.94811e-05
-3.39487e-05
-2.05365e-05
-4.54096e-05
-1.89962e-05
-5.55987e-05
-1.38375e-05
-6.06979e-05
-5.85138e-06
-5.39895e-05
-2.66048e-05
-4.53486e-06
2.18633e-05
-9.68232e-06
4.2017e-05
-1.21579e-05
4.72384e-05
-1.18742e-05
4.52918e-05
-9.66764e-06
4.03514e-05
-6.43748e-06
3.43677e-05
-2.92808e-06
2.81875e-05
2.96492e-07
2.20993e-05
2.81796e-06
1.61154e-05
4.32e-06
1.01149e-05
4.56059e-06
3.90125e-06
3.36871e-06
-2.78214e-06
6.78513e-07
-1.02535e-05
-3.38026e-06
-1.8883e-05
-8.315e-06
-2.9014e-05
-1.304e-05
-4.06846e-05
-1.57234e-05
-5.29152e-05
-1.4117e-05
-6.23043e-05
-7.26406e-06
-6.08424e-05
-3.38688e-05
-6.52504e-06
2.83883e-05
-1.09576e-05
4.64496e-05
-1.01595e-05
4.64403e-05
-5.73725e-06
4.08695e-05
4.68258e-07
3.41459e-05
7.15318e-06
2.76827e-05
1.3472e-05
2.18687e-05
1.88918e-05
1.66795e-05
2.30655e-05
1.19417e-05
2.574e-05
7.44037e-06
2.6699e-05
2.94227e-06
2.57351e-05
-1.81822e-06
2.26562e-05
-7.17457e-06
1.73474e-05
-1.35742e-05
9.94267e-06
-2.16093e-05
1.17402e-06
-3.1916e-05
-7.10209e-06
-4.46391e-05
-1.15153e-05
-5.7891e-05
-8.30651e-06
-6.40513e-05
-4.21753e-05
-8.44511e-06
3.68334e-05
-8.59701e-06
4.66015e-05
-1.08216e-06
3.89255e-05
9.45056e-06
3.03368e-05
2.03506e-05
2.32459e-05
3.03873e-05
1.76459e-05
3.90047e-05
1.32514e-05
4.59641e-05
9.72012e-06
5.11589e-05
6.74691e-06
5.45111e-05
4.08812e-06
5.59134e-05
1.54006e-06
5.51932e-05
-1.09803e-06
5.20884e-05
-4.06983e-06
4.62479e-05
-7.73373e-06
3.7309e-05
-1.26704e-05
2.51938e-05
-1.98007e-05
1.08703e-05
-3.03157e-05
-2.24171e-06
-4.47791e-05
-7.22127e-06
-5.90717e-05
-4.93966e-05
-4.49339e-06
4.13268e-05
8.69429e-06
3.34138e-05
2.67636e-05
2.08561e-05
4.33968e-05
1.37036e-05
5.72951e-05
9.34768e-06
6.84727e-05
6.46826e-06
7.7217e-05
4.50709e-06
8.3828e-05
3.10914e-06
8.85367e-05
2.03823e-06
9.148e-05
1.14484e-06
9.26912e-05
3.28827e-07
9.20897e-05
-4.96508e-07
8.94412e-05
-1.42137e-06
8.43032e-05
-2.59575e-06
7.59332e-05
-4.30036e-06
6.32589e-05
-7.12638e-06
4.52592e-05
-1.2316e-05
2.26057e-05
-2.21255e-05
2.12883e-06
-3.85948e-05
-4.72678e-05
4.13268e-05
7.47406e-05
9.55968e-05
0.0001093
0.000118648
0.000125116
0.000129623
0.000132733
0.000134771
0.000135916
0.000136244
0.000135748
0.000134327
0.000131731
0.00012743
0.000120304
0.000107988
8.58626e-05
4.72678e-05
)
;

boundaryField
{
    movingWall
    {
        type            calculated;
        value           uniform 0;
    }
    fixedWalls
    {
        type            calculated;
        value           uniform 0;
    }
    frontAndBack
    {
        type            empty;
        value           nonuniform List<scalar> 0();
    }
}


// ************************************************************************* //
