/*--------------------------------*- C++ -*----------------------------------*\
  =========                 |
  \\      /  F ield         | OpenFOAM: The Open Source CFD Toolbox
   \\    /   O peration     | Website:  https://openfoam.org
    \\  /    A nd           | Version:  8
     \\/     M anipulation  |
\*---------------------------------------------------------------------------*/
FoamFile
{
    version     2.0;
    format      ascii;
    class       volVectorField;
    location    "0.2";
    object      U;
}
// * * * * * * * * * * * * * * * * * * * * * * * * * * * * * * * * * * * * * //

dimensions      [0 1 -1 0 0 0 0];

internalField   nonuniform List<vector> 
400
(
(0.000775324 -0.000772861 0)
(0.000321364 0.000402061 0)
(-0.0039605 0.00181084 0)
(-0.0112647 0.00277625 0)
(-0.0203375 0.00325416 0)
(-0.0299973 0.00331344 0)
(-0.0392194 0.00303108 0)
(-0.0471456 0.00247178 0)
(-0.0530721 0.00168786 0)
(-0.056445 0.000730578 0)
(-0.0568826 -0.000336251 0)
(-0.054222 -0.00142611 0)
(-0.0485797 -0.00242618 0)
(-0.0404058 -0.00320262 0)
(-0.0305108 -0.00361503 0)
(-0.0200426 -0.00354008 0)
(-0.0103906 -0.00290339 0)
(-0.003004 -0.00171783 0)
(0.000895687 -0.000179511 0)
(0.000923028 0.000897283 0)
(-0.000336588 -0.000400885 0)
(-0.00544992 0.00545343 0)
(-0.0186326 0.0115872 0)
(-0.0377863 0.0158811 0)
(-0.060387 0.0180029 0)
(-0.0840005 0.0180913 0)
(-0.106343 0.0164113 0)
(-0.125407 0.013249 0)
(-0.139527 0.00888932 0)
(-0.147416 0.00364314 0)
(-0.148233 -0.00211116 0)
(-0.141677 -0.00789692 0)
(-0.1281 -0.0131354 0)
(-0.108592 -0.0171788 0)
(-0.0850035 -0.0193847 0)
(-0.0598613 -0.0192304 0)
(-0.036117 -0.0164621 0)
(-0.0167234 -0.0112627 0)
(-0.00420828 -0.00454449 0)
(2.53528e-05 0.00100682 0)
(-0.00183305 0.00385534 0)
(-0.012316 0.0187899 0)
(-0.0344752 0.0327359 0)
(-0.0643659 0.0423933 0)
(-0.0983607 0.0470123 0)
(-0.133218 0.0467545 0)
(-0.165853 0.0421369 0)
(-0.193512 0.0338091 0)
(-0.2139 0.0224881 0)
(-0.225252 0.00899211 0)
(-0.226424 -0.00569247 0)
(-0.217023 -0.0203615 0)
(-0.197538 -0.0335996 0)
(-0.169442 -0.0438652 0)
(-0.135223 -0.0496673 0)
(-0.0982706 -0.0498318 0)
(-0.0625508 -0.0438387 0)
(-0.0320686 -0.032181 0)
(-0.010604 -0.0168191 0)
(-0.00129392 -0.00236345 0)
(-0.00316441 0.0118157 0)
(-0.0187623 0.0398408 0)
(-0.0496009 0.0637196 0)
(-0.0895865 0.0797082 0)
(-0.133908 0.0869122 0)
(-0.178645 0.0856413 0)
(-0.220141 0.0767515 0)
(-0.255146 0.0613472 0)
(-0.280953 0.0406868 0)
(-0.295471 0.0162259 0)
(-0.29732 -0.0102896 0)
(-0.285977 -0.0367552 0)
(-0.261929 -0.0607241 0)
(-0.226805 -0.0795459 0)
(-0.183449 -0.0906564 0)
(-0.135846 -0.0920157 0)
(-0.0887957 -0.0826599 0)
(-0.0473489 -0.0632652 0)
(-0.0167962 -0.0367116 0)
(-0.00246976 -0.00914901 0)
(-0.00432184 0.023071 0)
(-0.0246537 0.0680315 0)
(-0.0637287 0.103744 0)
(-0.113267 0.126705 0)
(-0.167228 0.136303 0)
(-0.22106 0.133245 0)
(-0.270657 0.118873 0)
(-0.312431 0.0948316 0)
(-0.343406 0.0629833 0)
(-0.361252 0.0254709 0)
(-0.364369 -0.0151487 0)
(-0.352027 -0.0558054 0)
(-0.32455 -0.0929213 0)
(-0.283506 -0.122586 0)
(-0.231868 -0.140943 0)
(-0.174048 -0.144804 0)
(-0.115635 -0.132437 0)
(-0.062875 -0.104376 0)
(-0.0228884 -0.0641195 0)
(-0.00353461 -0.0190936 0)
(-0.00536411 0.0373107 0)
(-0.0301056 0.102947 0)
(-0.0769652 0.152403 0)
(-0.135541 0.182953 0)
(-0.19857 0.194718 0)
(-0.260914 0.189119 0)
(-0.318116 0.16817 0)
(-0.366374 0.134161 0)
(-0.402552 0.0895881 0)
(-0.424147 0.0372751 0)
(-0.429333 -0.0194349 0)
(-0.417084 -0.0765177 0)
(-0.387388 -0.129227 0)
(-0.341521 -0.172263 0)
(-0.282343 -0.200221 0)
(-0.21451 -0.208368 0)
(-0.144376 -0.193715 0)
(-0.0795501 -0.156153 0)
(-0.029363 -0.0994315 0)
(-0.00462672 -0.0321896 0)
(-0.00634193 0.0543246 0)
(-0.0352499 0.144206 0)
(-0.0894664 0.209244 0)
(-0.156527 0.247949 0)
(-0.227988 0.261638 0)
(-0.298191 0.252797 0)
(-0.362445 0.22434 0)
(-0.416866 0.179301 0)
(-0.458283 0.12082 0)
(-0.484102 0.0523371 0)
(-0.492281 -0.0221177 0)
(-0.48142 -0.0976637 0)
(-0.450997 -0.168425 0)
(-0.40173 -0.227626 0)
(-0.336057 -0.268035 0)
(-0.258607 -0.28288 0)
(-0.176365 -0.267228 0)
(-0.0984306 -0.219605 0)
(-0.0367957 -0.143496 0)
(-0.0059003 -0.0487526 0)
(-0.00729405 0.0739797 0)
(-0.0401965 0.191478 0)
(-0.10135 0.273761 0)
(-0.176225 0.321037 0)
(-0.25524 0.336319 0)
(-0.332324 0.323561 0)
(-0.402711 0.286831 0)
(-0.46262 0.230013 0)
(-0.509013 0.156872 0)
(-0.539342 0.0713488 0)
(-0.55141 -0.0220239 0)
(-0.543412 -0.117708 0)
(-0.514157 -0.208845 0)
(-0.463515 -0.287187 0)
(-0.393093 -0.343435 0)
(-0.307052 -0.368197 0)
(-0.212676 -0.353702 0)
(-0.120532 -0.296064 0)
(-0.0457847 -0.197663 0)
(-0.00751763 -0.0694365 0)
(-0.00825882 0.0962049 0)
(-0.0450573 0.244474 0)
(-0.112713 0.345363 0)
(-0.194516 0.401311 0)
(-0.279776 0.417627 0)
(-0.36217 0.40021 0)
(-0.43709 0.354573 0)
(-0.501109 0.28557 0)
(-0.551578 0.197547 0)
(-0.586205 0.0947754 0)
(-0.602795 -0.0179751 0)
(-0.599186 -0.134826 0)
(-0.573424 -0.248238 0)
(-0.524236 -0.348657 0)
(-0.451898 -0.424591 0)
(-0.359439 -0.463457 0)
(-0.253797 -0.453527 0)
(-0.14669 -0.386998 0)
(-0.0569348 -0.263738 0)
(-0.00966033 -0.0952383 0)
(-0.00930162 0.121006 0)
(-0.0500239 0.302961 0)
(-0.123736 0.423322 0)
(-0.211255 0.48747 0)
(-0.3008 0.5038 0)
(-0.386036 0.480751 0)
(-0.462846 0.425634 0)
(-0.528518 0.344395 0)
(-0.581136 0.241903 0)
(-0.618983 0.122545 0)
(-0.640131 -0.00901886 0)
(-0.64224 -0.147016 0)
(-0.622611 -0.283715 0)
(-0.578607 -0.408669 0)
(-0.508621 -0.508326 0)
(-0.413664 -0.566478 0)
(-0.299248 -0.566186 0)
(-0.177419 -0.493644 0)
(-0.0708717 -0.343864 0)
(-0.0125563 -0.127516 0)
(-0.0105638 0.148547 0)
(-0.055502 0.366832 0)
(-0.134851 0.506719 0)
(-0.226405 0.577625 0)
(-0.317332 0.59215 0)
(-0.401677 0.562045 0)
(-0.476302 0.496826 0)
(-0.539689 0.403658 0)
(-0.591102 0.287852 0)
(-0.629815 0.153659 0)
(-0.654554 0.00522734 0)
(-0.663131 -0.152341 0)
(-0.652307 -0.311818 0)
(-0.618029 -0.462601 0)
(-0.55633 -0.58963 0)
(-0.465156 -0.673018 0)
(-0.347022 -0.689431 0)
(-0.212677 -0.616381 0)
(-0.0882638 -0.440299 0)
(-0.0165256 -0.168041 0)
(-0.0123488 0.179344 0)
(-0.0623156 0.436259 0)
(-0.146947 0.594381 0)
(-0.240128 0.669039 0)
(-0.328166 0.678696 0)
(-0.406166 0.639399 0)
(-0.472676 0.563304 0)
(-0.527988 0.458884 0)
(-0.573072 0.331763 0)
(-0.608667 0.185784 0)
(-0.63462 0.0241508 0)
(-0.649376 -0.149329 0)
(-0.64959 -0.328798 0)
(-0.630041 -0.504596 0)
(-0.584187 -0.661278 0)
(-0.505919 -0.775943 0)
(-0.392756 -0.818174 0)
(-0.251452 -0.753766 0)
(-0.109828 -0.555021 0)
(-0.0220559 -0.219111 0)
(-0.0152738 0.214643 0)
(-0.0719991 0.511922 0)
(-0.161516 0.684705 0)
(-0.252634 0.757681 0)
(-0.331451 0.757642 0)
(-0.395335 0.706097 0)
(-0.445541 0.61819 0)
(-0.484908 0.503646 0)
(-0.516635 0.36818 0)
(-0.543357 0.214919 0)
(-0.566496 0.0457261 0)
(-0.585675 -0.13748 0)
(-0.598109 -0.331139 0)
(-0.598054 -0.527904 0)
(-0.576726 -0.713739 0)
(-0.523405 -0.864464 0)
(-0.428521 -0.943088 0)
(-0.290984 -0.901037 0)
(-0.136251 -0.689007 0)
(-0.0299174 -0.283748 0)
(-0.0205294 0.257098 0)
(-0.0871472 0.595189 0)
(-0.18048 0.775097 0)
(-0.263306 0.837362 0)
(-0.32333 0.820591 0)
(-0.362268 0.752869 0)
(-0.385459 0.652317 0)
(-0.399037 0.529517 0)
(-0.408791 0.389845 0)
(-0.419458 0.235365 0)
(-0.434274 0.0662863 0)
(-0.454497 -0.117772 0)
(-0.47867 -0.316306 0)
(-0.501618 -0.525704 0)
(-0.513443 -0.735654 0)
(-0.499278 -0.923774 0)
(-0.441059 -1.0491 0)
(-0.325301 -1.04791 0)
(-0.167795 -0.840785 0)
(-0.0412803 -0.365938 0)
(-0.0302298 0.311832 0)
(-0.111539 0.687827 0)
(-0.204856 0.860516 0)
(-0.267944 0.898151 0)
(-0.294503 0.855452 0)
(-0.293894 0.767455 0)
(-0.277066 0.654362 0)
(-0.253884 0.526571 0)
(-0.232612 0.388353 0)
(-0.219784 0.240287 0)
(-0.220231 0.0807798 0)
(-0.236934 -0.0929114 0)
(-0.270403 -0.283625 0)
(-0.317395 -0.492489 0)
(-0.368965 -0.715304 0)
(-0.408241 -0.935731 0)
(-0.409248 -1.11435 0)
(-0.342351 -1.1757 0)
(-0.202829 -1.00367 0)
(-0.0575604 -0.470615 0)
(-0.047442 0.388132 0)
(-0.148682 0.790163 0)
(-0.229847 0.929972 0)
(-0.251558 0.92361 0)
(-0.222689 0.845185 0)
(-0.164354 0.734728 0)
(-0.0938749 0.611919 0)
(-0.0242053 0.484968 0)
(0.0350256 0.355871 0)
(0.0766329 0.22328 0)
(0.0951217 0.083895 0)
(0.0863122 -0.0669501 0)
(0.0475882 -0.234928 0)
(-0.0209645 -0.425885 0)
(-0.11409 -0.643241 0)
(-0.217122 -0.88121 0)
(-0.300444 -1.1104 0)
(-0.318461 -1.25408 0)
(-0.233406 -1.16124 0)
(-0.0789255 -0.603626 0)
(-0.0739866 0.50298 0)
(-0.194271 0.894584 0)
(-0.229957 0.957612 0)
(-0.171537 0.885239 0)
(-0.0581448 0.766214 0)
(0.0757743 0.637802 0)
(0.208993 0.513995 0)
(0.328447 0.397946 0)
(0.425826 0.288123 0)
(0.495453 0.181047 0)
(0.532834 0.072197 0)
(0.533806 -0.0439861 0)
(0.494272 -0.174524 0)
(0.41071 -0.328359 0)
(0.282194 -0.515821 0)
(0.115474 -0.744316 0)
(-0.0655498 -1.0043 0)
(-0.208686 -1.23757 0)
(-0.234881 -1.27959 0)
(-0.098613 -0.772122 0)
(-0.097311 0.678812 0)
(-0.208445 0.964749 0)
(-0.119997 0.886223 0)
(0.0763162 0.737352 0)
(0.299143 0.591083 0)
(0.512346 0.463938 0)
(0.7007 0.3574 0)
(0.857356 0.267494 0)
(0.979402 0.189007 0)
(1.06534 0.116991 0)
(1.11355 0.0467863 0)
(1.12136 -0.0265455 0)
(1.08452 -0.109147 0)
(0.996804 -0.209782 0)
(0.850447 -0.34154 0)
(0.639425 -0.522289 0)
(0.368022 -0.767966 0)
(0.0697057 -1.06495 0)
(-0.143746 -1.28713 0)
(-0.0842125 -0.964455 0)
(-0.00630437 0.843833 0)
(-0.000920083 0.88122 0)
(0.33687 0.64286 0)
(0.708132 0.457547 0)
(1.01861 0.328329 0)
(1.2685 0.236464 0)
(1.46658 0.170121 0)
(1.61925 0.120527 0)
(1.73178 0.081234 0)
(1.80796 0.0477394 0)
(1.84959 0.0167244 0)
(1.85629 -0.0147365 0)
(1.82509 -0.050085 0)
(1.74947 -0.0945222 0)
(1.61797 -0.157387 0)
(1.4128 -0.256292 0)
(1.10804 -0.422039 0)
(0.67731 -0.693153 0)
(0.214312 -1.04246 0)
(0.0995748 -1.02405 0)
(0.929367 0.455386 0)
(1.20476 0.402014 0)
(1.69009 0.249565 0)
(2.0609 0.151922 0)
(2.29363 0.0947634 0)
(2.44709 0.0601139 0)
(2.55391 0.0385644 0)
(2.62858 0.024622 0)
(2.67915 0.0149268 0)
(2.71047 0.00748852 0)
(2.72503 0.00109457 0)
(2.72349 -0.00511392 0)
(2.70482 -0.0120474 0)
(2.66574 -0.0210531 0)
(2.59892 -0.0348607 0)
(2.48922 -0.0597038 0)
(2.30135 -0.110003 0)
(1.94983 -0.215269 0)
(1.39871 -0.40336 0)
(1.02266 -0.487641 0)
)
;

boundaryField
{
    movingWall
    {
        type            fixedValue;
        value           uniform (3.2 0 0);
    }
    fixedWalls
    {
        type            noSlip;
    }
    frontAndBack
    {
        type            empty;
    }
}


// ************************************************************************* //
