/*--------------------------------*- C++ -*----------------------------------*\
  =========                 |
  \\      /  F ield         | OpenFOAM: The Open Source CFD Toolbox
   \\    /   O peration     | Website:  https://openfoam.org
    \\  /    A nd           | Version:  8
     \\/     M anipulation  |
\*---------------------------------------------------------------------------*/
FoamFile
{
    version     2.0;
    format      ascii;
    class       volScalarField;
    location    "0.1";
    object      p;
}
// * * * * * * * * * * * * * * * * * * * * * * * * * * * * * * * * * * * * * //

dimensions      [0 2 -2 0 0 0 0];

internalField   nonuniform List<scalar> 
400
(
9.99447e-08
-0.0149004
-0.0327481
-0.0461252
-0.0509399
-0.0454321
-0.0294403
-0.0038901
0.0295069
0.068391
0.10984
0.150491
0.186767
0.215225
0.233057
0.23867
0.23232
0.216687
0.19728
0.182441
0.0148006
-0.00055712
-0.0144824
-0.02356
-0.0259851
-0.0205476
-0.00703874
0.0139162
0.0410577
0.0725759
0.106176
0.139192
0.16878
0.192228
0.207349
0.212942
0.209257
0.19823
0.18294
0.16779
0.0337622
0.0125352
-0.0024359
-0.0106606
-0.012565
-0.00759719
0.00428056
0.0225141
0.0460917
0.0735528
0.102995
0.132143
0.158504
0.179636
0.193491
0.198823
0.195621
0.18515
0.168427
0.147298
0.0501822
0.0210219
0.00254822
-0.00676342
-0.00923792
-0.00491799
0.00600025
0.0229239
0.0449669
0.0708806
0.0989858
0.12718
0.15305
0.174101
0.188088
0.19342
0.189668
0.177524
0.156414
0.126747
0.0593935
0.0220732
-0.000525628
-0.0115042
-0.0148304
-0.0110453
-0.000552143
0.0160088
0.0378454
0.0638693
0.0925482
0.121847
0.149285
0.172133
0.187734
0.193948
0.189789
0.175385
0.148824
0.109645
0.0578279
0.0125278
-0.0142692
-0.0269973
-0.0310883
-0.0275021
-0.0168024
0.000347361
0.0232538
0.0509763
0.0820981
0.114592
0.145815
0.172657
0.191852
0.200486
0.196823
0.180338
0.147824
0.0982571
0.0424154
-0.0106398
-0.0414599
-0.055712
-0.0602191
-0.056318
-0.0446911
-0.025985
-0.00075926
0.0302224
0.0656778
0.103585
0.14109
0.17459
0.200015
0.213405
0.211978
0.194308
0.155672
0.0945489
0.0101649
-0.0504627
-0.0849531
-0.100233
-0.104562
-0.0996673
-0.0863246
-0.0651162
-0.0364023
-0.000690775
0.0409534
0.0865818
0.133156
0.17652
0.211613
0.233098
0.236722
0.219688
0.175185
0.100989
-0.0421031
-0.110206
-0.147835
-0.163335
-0.166595
-0.159813
-0.143867
-0.119225
-0.0859535
-0.0441724
0.0054252
0.061122
0.119817
0.17683
0.225965
0.26014
0.273044
0.259757
0.210338
0.1213
-0.117954
-0.193557
-0.233495
-0.247902
-0.24871
-0.238779
-0.219137
-0.190089
-0.151281
-0.102265
-0.0431306
0.0248973
0.0989086
0.173866
0.242414
0.295374
0.323656
0.3191
0.266941
0.161302
-0.221628
-0.304895
-0.345701
-0.356757
-0.352846
-0.337826
-0.312968
-0.278359
-0.233074
-0.175859
-0.105893
-0.0235449
0.068883
0.166375
0.26061
0.340116
0.392255
0.404127
0.353537
0.230075
-0.358677
-0.449809
-0.488727
-0.49241
-0.479943
-0.456711
-0.424336
-0.382602
-0.329808
-0.263608
-0.181907
-0.0837312
0.0297869
0.154304
0.281094
0.396562
0.483932
0.523758
0.482654
0.341772
-0.537447
-0.636077
-0.667561
-0.656637
-0.629169
-0.592728
-0.54931
-0.498197
-0.436604
-0.360735
-0.266806
-0.151982
-0.0154955
0.139914
0.306175
0.468413
0.605708
0.690296
0.672634
0.518698
-0.772504
-0.875459
-0.888035
-0.849711
-0.796793
-0.739525
-0.679944
-0.61633
-0.544301
-0.458146
-0.351939
-0.220441
-0.0602167
0.128768
0.340732
0.561386
0.766919
0.920329
0.950379
0.797076
-1.09226
-1.18665
-1.15633
-1.06868
-0.974391
-0.885655
-0.803295
-0.723454
-0.639305
-0.542511
-0.424553
-0.277297
-0.0939178
0.129637
0.392015
0.682694
0.978472
1.23474
1.35479
1.23732
-1.5538
-1.59906
-1.4771
-1.30455
-1.14663
-1.01336
-0.901232
-0.801985
-0.705032
-0.598222
-0.470113
-0.309259
-0.104887
0.152208
0.467524
0.838867
1.25042
1.6564
1.93828
1.93773
-2.2717
-2.1554
-1.85033
-1.54091
-1.29141
-1.10008
-0.953261
-0.834315
-0.726115
-0.612318
-0.477655
-0.307216
-0.0859647
0.201444
0.569934
1.03144
1.58778
2.20466
2.76561
3.05583
-3.52028
-2.9085
-2.24881
-1.73904
-1.37251
-1.11644
-0.938079
-0.806222
-0.694496
-0.581253
-0.447645
-0.275596
-0.0460363
0.263087
0.678861
1.23453
1.96165
2.86712
3.92164
4.92429
-6.05956
-3.87657
-2.49106
-1.73778
-1.27734
-0.98962
-0.812195
-0.695213
-0.602761
-0.509425
-0.394897
-0.24006
-0.0242303
0.279102
0.708206
1.32192
2.20199
3.47088
5.461
8.34628
-10.6468
-4.81678
-2.21502
-1.29613
-0.871447
-0.650752
-0.544243
-0.491781
-0.455047
-0.410467
-0.340711
-0.230045
-0.0605879
0.191232
0.563709
1.12851
2.02651
3.60116
6.97977
13.5932
)
;

boundaryField
{
    movingWall
    {
        type            zeroGradient;
    }
    fixedWalls
    {
        type            zeroGradient;
    }
    frontAndBack
    {
        type            empty;
    }
}


// ************************************************************************* //
