/*--------------------------------*- C++ -*----------------------------------*\
  =========                 |
  \\      /  F ield         | OpenFOAM: The Open Source CFD Toolbox
   \\    /   O peration     | Website:  https://openfoam.org
    \\  /    A nd           | Version:  8
     \\/     M anipulation  |
\*---------------------------------------------------------------------------*/
FoamFile
{
    version     2.0;
    format      ascii;
    class       volVectorField;
    location    "0.1";
    object      U;
}
// * * * * * * * * * * * * * * * * * * * * * * * * * * * * * * * * * * * * * //

dimensions      [0 1 -1 0 0 0 0];

internalField   nonuniform List<vector> 
400
(
(0.000625386 -0.000619933 0)
(0.000276278 0.000320363 0)
(-0.00314334 0.00145637 0)
(-0.00900281 0.00223758 0)
(-0.0162963 0.00262361 0)
(-0.0240616 0.00266669 0)
(-0.0314601 0.00242906 0)
(-0.0377921 0.00196649 0)
(-0.0424941 0.00132655 0)
(-0.0451355 0.000555365 0)
(-0.0454326 -0.000293324 0)
(-0.0432781 -0.00115132 0)
(-0.0387806 -0.00193319 0)
(-0.0323002 -0.00253917 0)
(-0.0244674 -0.00286428 0)
(-0.0161687 -0.0028138 0)
(-0.00848173 -0.00232581 0)
(-0.0025472 -0.00140039 0)
(0.000641679 -0.00017759 0)
(0.000721664 0.000702674 0)
(-0.000249206 -0.000342841 0)
(-0.00429271 0.00433095 0)
(-0.0147994 0.00927111 0)
(-0.0301259 0.0127444 0)
(-0.0482469 0.0144605 0)
(-0.0671836 0.0145176 0)
(-0.0850755 0.0131313 0)
(-0.100296 0.0105473 0)
(-0.111514 0.00701684 0)
(-0.117724 0.00280858 0)
(-0.118293 -0.00176541 0)
(-0.113021 -0.00632976 0)
(-0.102215 -0.0104424 0)
(-0.0867434 -0.0136152 0)
(-0.0680527 -0.0153632 0)
(-0.0481051 -0.0152829 0)
(-0.029199 -0.0131602 0)
(-0.0136587 -0.00910067 0)
(-0.00352846 -0.00377119 0)
(-2.34104e-05 0.000729361 0)
(-0.00142981 0.0030041 0)
(-0.00973203 0.0149261 0)
(-0.0273893 0.0261556 0)
(-0.0512943 0.0339686 0)
(-0.0785344 0.0377084 0)
(-0.106473 0.0374773 0)
(-0.132596 0.033698 0)
(-0.154676 0.0269281 0)
(-0.170879 0.0177904 0)
(-0.179825 0.00698143 0)
(-0.180649 -0.00469172 0)
(-0.173088 -0.0162802 0)
(-0.157566 -0.026697 0)
(-0.135262 -0.0347733 0)
(-0.108128 -0.0393778 0)
(-0.0788037 -0.0396027 0)
(-0.0503786 -0.0350106 0)
(-0.025998 -0.0259117 0)
(-0.00869764 -0.0137436 0)
(-0.00109771 -0.00207543 0)
(-0.00248262 0.00928544 0)
(-0.0148591 0.0316634 0)
(-0.0394679 0.0509002 0)
(-0.0714856 0.0638473 0)
(-0.107037 0.069688 0)
(-0.142922 0.0686284 0)
(-0.176153 0.0613724 0)
(-0.204097 0.0488687 0)
(-0.224591 0.0322059 0)
(-0.236 0.0126171 0)
(-0.237284 -0.00847119 0)
(-0.228092 -0.0293978 0)
(-0.208863 -0.0482772 0)
(-0.180919 -0.0630937 0)
(-0.146501 -0.0718984 0)
(-0.108721 -0.0731186 0)
(-0.0713127 -0.0659587 0)
(-0.0382273 -0.0508311 0)
(-0.0136814 -0.0298265 0)
(-0.00205323 -0.007642 0)
(-0.0034042 0.0181897 0)
(-0.019591 0.0541294 0)
(-0.0508733 0.0829332 0)
(-0.0906579 0.10155 0)
(-0.134051 0.109337 0)
(-0.177315 0.106805 0)
(-0.217077 0.0950633 0)
(-0.250422 0.0755319 0)
(-0.274969 0.0498229 0)
(-0.288904 0.0197539 0)
(-0.291026 -0.0125815 0)
(-0.28085 -0.0447523 0)
(-0.258719 -0.0739943 0)
(-0.225934 -0.0973279 0)
(-0.184867 -0.111825 0)
(-0.138969 -0.11504 0)
(-0.0925857 -0.105578 0)
(-0.0505716 -0.0837022 0)
(-0.0185562 -0.0519027 0)
(-0.00291654 -0.0157527 0)
(-0.00424868 0.0295018 0)
(-0.0240512 0.0820717 0)
(-0.0617585 0.122032 0)
(-0.10902 0.146834 0)
(-0.159906 0.156365 0)
(-0.210157 0.151701 0)
(-0.256089 0.134522 0)
(-0.294597 0.106811 0)
(-0.323171 0.0707449 0)
(-0.339874 0.0287328 0)
(-0.343354 -0.0164731 0)
(-0.332927 -0.0616724 0)
(-0.30872 -0.103188 0)
(-0.271855 -0.136977 0)
(-0.224653 -0.158945 0)
(-0.170782 -0.165488 0)
(-0.115172 -0.154252 0)
(-0.0637035 -0.124972 0)
(-0.0236857 -0.0802321 0)
(-0.00379387 -0.0263839 0)
(-0.0050646 0.0431041 0)
(-0.0283784 0.115298 0)
(-0.0723153 0.16797 0)
(-0.126764 0.199425 0)
(-0.184756 0.210457 0)
(-0.241555 0.203004 0)
(-0.293248 0.179515 0)
(-0.336647 0.142642 0)
(-0.369216 0.0951462 0)
(-0.388965 0.0399947 0)
(-0.394403 -0.0194664 0)
(-0.384601 -0.0793313 0)
(-0.359343 -0.135032 0)
(-0.319379 -0.181396 0)
(-0.266765 -0.212959 0)
(-0.205187 -0.224598 0)
(-0.140069 -0.212506 0)
(-0.0784038 -0.175354 0)
(-0.0294981 -0.115413 0)
(-0.00480108 -0.0397557 0)
(-0.0058909 0.0589593 0)
(-0.0326914 0.153686 0)
(-0.0826953 0.220504 0)
(-0.143963 0.258944 0)
(-0.208488 0.271124 0)
(-0.271131 0.260196 0)
(-0.32788 0.229612 0)
(-0.375612 0.182795 0)
(-0.411911 0.1231 0)
(-0.43484 0.0539728 0)
(-0.442828 -0.0207744 0)
(-0.434675 -0.0966723 0)
(-0.409703 -0.168365 0)
(-0.368078 -0.229549 0)
(-0.311288 -0.273207 0)
(-0.242724 -0.29228 0)
(-0.16807 -0.280862 0)
(-0.0954185 -0.235798 0)
(-0.0364332 -0.158409 0)
(-0.0060581 -0.0563394 0)
(-0.00676595 0.077096 0)
(-0.0371053 0.197171 0)
(-0.0930163 0.279343 0)
(-0.160561 0.324816 0)
(-0.230687 0.337561 0)
(-0.297978 0.322369 0)
(-0.358517 0.283962 0)
(-0.409467 0.226657 0)
(-0.448737 0.154383 0)
(-0.474624 0.0709445 0)
(-0.48559 -0.0195806 0)
(-0.480197 -0.112396 0)
(-0.457222 -0.201573 0)
(-0.416012 -0.279792 0)
(-0.357109 -0.338383 0)
(-0.283128 -0.367924 0)
(-0.199555 -0.359605 0)
(-0.115368 -0.307359 0)
(-0.0449349 -0.210521 0)
(-0.00769795 -0.076858 0)
(-0.00774895 0.0976181 0)
(-0.0417902 0.245747 0)
(-0.103433 0.34408 0)
(-0.176424 0.396131 0)
(-0.250653 0.40843 0)
(-0.320632 0.387953 0)
(-0.382835 0.341014 0)
(-0.435021 0.272948 0)
(-0.47572 0.188218 0)
(-0.503717 0.0908182 0)
(-0.517708 -0.0151798 0)
(-0.51613 -0.124995 0)
(-0.497201 -0.232494 0)
(-0.459247 -0.329631 0)
(-0.40143 -0.406158 0)
(-0.324918 -0.449951 0)
(-0.234229 -0.448369 0)
(-0.138659 -0.390935 0)
(-0.0554685 -0.273302 0)
(-0.00988799 -0.102301 0)
(-0.00895896 0.120765 0)
(-0.0470744 0.299499 0)
(-0.114258 0.414121 0)
(-0.191411 0.471449 0)
(-0.267397 0.481593 0)
(-0.337008 0.454411 0)
(-0.397547 0.398194 0)
(-0.447797 0.319406 0)
(-0.487286 0.222974 0)
(-0.515625 0.112864 0)
(-0.532028 -0.00719541 0)
(-0.53503 -0.132889 0)
(-0.522391 -0.258411 0)
(-0.491315 -0.375524 0)
(-0.439161 -0.472773 0)
(-0.364838 -0.535238 0)
(-0.27074 -0.545538 0)
(-0.165339 -0.486832 0)
(-0.0685493 -0.348411 0)
(-0.0128664 -0.133965 0)
(-0.0106443 0.14706 0)
(-0.0536028 0.358707 0)
(-0.126096 0.48859 0)
(-0.205403 0.548542 0)
(-0.279542 0.553755 0)
(-0.344212 0.517875 0)
(-0.398189 0.451557 0)
(-0.441827 0.362467 0)
(-0.476105 0.255864 0)
(-0.501833 0.13542 0)
(-0.519093 0.00413584 0)
(-0.52684 -0.134663 0)
(-0.522641 -0.27618 0)
(-0.502669 -0.412809 0)
(-0.462221 -0.532672 0)
(-0.39711 -0.618449 0)
(-0.306073 -0.647409 0)
(-0.194824 -0.594073 0)
(-0.0847712 -0.437357 0)
(-0.0170042 -0.173556 0)
(-0.0133056 0.177606 0)
(-0.0625613 0.423977 0)
(-0.139927 0.566107 0)
(-0.218106 0.623945 0)
(-0.284896 0.619985 0)
(-0.338003 0.572716 0)
(-0.378598 0.495464 0)
(-0.409257 0.39702 0)
(-0.432851 0.282728 0)
(-0.451727 0.155652 0)
(-0.46716 0.0176731 0)
(-0.478905 -0.129402 0)
(-0.484773 -0.282549 0)
(-0.480298 -0.435847 0)
(-0.458814 -0.578295 0)
(-0.412458 -0.691346 0)
(-0.334618 -0.747097 0)
(-0.225361 -0.709309 0)
(-0.104789 -0.541016 0)
(-0.0229049 -0.223363 0)
(-0.0179043 0.214617 0)
(-0.0759359 0.496309 0)
(-0.156891 0.644227 0)
(-0.228239 0.692166 0)
(-0.279255 0.67301 0)
(-0.311514 0.611089 0)
(-0.329793 0.522369 0)
(-0.339526 0.416361 0)
(-0.345759 0.298057 0)
(-0.352509 0.169524 0)
(-0.362402 0.0311868 0)
(-0.376314 -0.117078 0)
(-0.39285 -0.274686 0)
(-0.407657 -0.438543 0)
(-0.412821 -0.600282 0)
(-0.39693 -0.742312 0)
(-0.346692 -0.833245 0)
(-0.252921 -0.825139 0)
(-0.129094 -0.658636 0)
(-0.0315232 -0.28651 0)
(-0.0261321 0.262239 0)
(-0.0965463 0.576736 0)
(-0.177074 0.718116 0)
(-0.231189 0.744305 0)
(-0.25359 0.702316 0)
(-0.252574 0.622624 0)
(-0.237801 0.522986 0)
(-0.217862 0.41265 0)
(-0.199812 0.29551 0)
(-0.18903 0.172197 0)
(-0.189275 0.0414787 0)
(-0.202618 -0.0988342 0)
(-0.228972 -0.250921 0)
(-0.265155 -0.415402 0)
(-0.303517 -0.588443 0)
(-0.330518 -0.756608 0)
(-0.326239 -0.888916 0)
(-0.268907 -0.927734 0)
(-0.15699 -0.785806 0)
(-0.0441107 -0.36707 0)
(-0.0403694 0.32784 0)
(-0.126685 0.664611 0)
(-0.195326 0.777542 0)
(-0.213137 0.765812 0)
(-0.188161 0.693263 0)
(-0.138794 0.594706 0)
(-0.0800521 0.487323 0)
(-0.0229781 0.378276 0)
(0.0244227 0.26929 0)
(0.0564307 0.159176 0)
(0.0689314 0.0450798 0)
(0.0590258 -0.0769463 0)
(0.0252648 -0.211527 0)
(-0.0314475 -0.36313 0)
(-0.105958 -0.533826 0)
(-0.185788 -0.717942 0)
(-0.247273 -0.891291 0)
(-0.255415 -0.993888 0)
(-0.183216 -0.910882 0)
(-0.0611731 -0.47021 0)
(-0.0616931 0.424752 0)
(-0.161648 0.7521 0)
(-0.18913 0.799672 0)
(-0.137895 0.732298 0)
(-0.0417348 0.626249 0)
(0.0699675 0.513793 0)
(0.17924 0.406974 0)
(0.27531 0.308376 0)
(0.351616 0.216516 0)
(0.403928 0.128276 0)
(0.429081 0.0396387 0)
(0.424228 -0.0542242 0)
(0.386677 -0.159213 0)
(0.314383 -0.282499 0)
(0.20767 -0.431811 0)
(0.073207 -0.611711 0)
(-0.068773 -0.812631 0)
(-0.176497 -0.987333 0)
(-0.189412 -1.00851 0)
(-0.0781387 -0.602861 0)
(-0.0786612 0.569572 0)
(-0.166982 0.807136 0)
(-0.0880772 0.736686 0)
(0.0786012 0.606655 0)
(0.264585 0.479891 0)
(0.439836 0.370831 0)
(0.592019 0.280564 0)
(0.716024 0.205432 0)
(0.810106 0.140779 0)
(0.873652 0.0822305 0)
(0.905852 0.0256674 0)
(0.904981 -0.0332385 0)
(0.86795 -0.0997691 0)
(0.790123 -0.181202 0)
(0.665917 -0.287916 0)
(0.491659 -0.433212 0)
(0.272481 -0.627431 0)
(0.0371367 -0.85711 0)
(-0.124912 -1.02277 0)
(-0.0703047 -0.759136 0)
(0.00163707 0.697949 0)
(0.0124844 0.729859 0)
(0.296248 0.530135 0)
(0.604656 0.373032 0)
(0.859398 0.263657 0)
(1.06142 0.186704 0)
(1.21879 0.131845 0)
(1.33762 0.0913959 0)
(1.42295 0.0597856 0)
(1.47843 0.033155 0)
(1.50588 0.00864791 0)
(1.50519 -0.0162763 0)
(1.47398 -0.0446149 0)
(1.40689 -0.0808401 0)
(1.29456 -0.132734 0)
(1.12291 -0.214319 0)
(0.871957 -0.348858 0)
(0.523137 -0.564336 0)
(0.155247 -0.838332 0)
(0.0715235 -0.818086 0)
(0.761351 0.372637 0)
(0.9923 0.328257 0)
(1.39357 0.201876 0)
(1.69637 0.121127 0)
(1.88361 0.0742679 0)
(2.00516 0.0462725 0)
(2.08832 0.0291388 0)
(2.1453 0.0182211 0)
(2.18297 0.010734 0)
(2.20542 0.00505105 0)
(2.21473 0.000180492 0)
(2.21145 -0.00459478 0)
(2.19464 -0.0100603 0)
(2.1614 -0.0174141 0)
(2.10543 -0.0290515 0)
(2.01396 -0.050244 0)
(1.85754 -0.0925965 0)
(1.56764 -0.178966 0)
(1.12174 -0.329625 0)
(0.82319 -0.394464 0)
)
;

boundaryField
{
    movingWall
    {
        type            fixedValue;
        value           uniform (2.6 0 0);
    }
    fixedWalls
    {
        type            noSlip;
    }
    frontAndBack
    {
        type            empty;
    }
}


// ************************************************************************* //
