/*--------------------------------*- C++ -*----------------------------------*\
  =========                 |
  \\      /  F ield         | OpenFOAM: The Open Source CFD Toolbox
   \\    /   O peration     | Website:  https://openfoam.org
    \\  /    A nd           | Version:  8
     \\/     M anipulation  |
\*---------------------------------------------------------------------------*/
FoamFile
{
    version     2.0;
    format      ascii;
    class       volVectorField;
    location    "0.1";
    object      U;
}
// * * * * * * * * * * * * * * * * * * * * * * * * * * * * * * * * * * * * * //

dimensions      [0 1 -1 0 0 0 0];

internalField   nonuniform List<vector> 
400
(
(0.00104837 -0.00109386 0)
(0.000370584 0.000571881 0)
(-0.00572328 0.00255437 0)
(-0.0159795 0.00388139 0)
(-0.0286691 0.00453712 0)
(-0.0421761 0.0046358 0)
(-0.0551374 0.0042827 0)
(-0.0663964 0.00355197 0)
(-0.0749648 0.00249481 0)
(-0.0800101 0.00116266 0)
(-0.0809025 -0.000366225 0)
(-0.0773112 -0.00196729 0)
(-0.0693258 -0.00346307 0)
(-0.0575662 -0.00463483 0)
(-0.043237 -0.00525275 0)
(-0.0280826 -0.00512277 0)
(-0.0142101 -0.00414412 0)
(-0.00376443 -0.00237025 0)
(0.00154982 -0.000141257 0)
(0.00137884 0.00133416 0)
(-0.00056997 -0.000458378 0)
(-0.00794571 0.00780788 0)
(-0.0266441 0.0163701 0)
(-0.0536127 0.0222783 0)
(-0.0853186 0.025199 0)
(-0.118451 0.0253871 0)
(-0.149933 0.0232025 0)
(-0.177028 0.0189775 0)
(-0.197386 0.0130188 0)
(-0.209088 0.00567927 0)
(-0.210771 -0.00255279 0)
(-0.201824 -0.0109903 0)
(-0.182607 -0.0187388 0)
(-0.154629 -0.024762 0)
(-0.120612 -0.0280256 0)
(-0.0843488 -0.0277123 0)
(-0.0502781 -0.0234815 0)
(-0.02277 -0.0157293 0)
(-0.00538468 -0.00598252 0)
(0.000201011 0.00172128 0)
(-0.00270611 0.00571736 0)
(-0.0177473 0.0268497 0)
(-0.0491935 0.0462668 0)
(-0.0913257 0.0595642 0)
(-0.139091 0.0659355 0)
(-0.188097 0.0657248 0)
(-0.234175 0.0596219 0)
(-0.273557 0.0483857 0)
(-0.302993 0.0328194 0)
(-0.319852 0.0138928 0)
(-0.322292 -0.00709736 0)
(-0.30951 -0.0284179 0)
(-0.282002 -0.0479032 0)
(-0.241788 -0.063114 0)
(-0.192496 -0.0716687 0)
(-0.139189 -0.07173 0)
(-0.0878333 -0.062587 0)
(-0.0443996 -0.0452166 0)
(-0.014289 -0.0228831 0)
(-0.00160196 -0.00265853 0)
(-0.00463058 0.017228 0)
(-0.0269761 0.0568604 0)
(-0.0707072 0.0900735 0)
(-0.12706 0.112085 0)
(-0.189361 0.122039 0)
(-0.252331 0.120546 0)
(-0.311042 0.10873 0)
(-0.361045 0.0878783 0)
(-0.3985 0.0594182 0)
(-0.420275 0.0250964 0)
(-0.424132 -0.0127849 0)
(-0.408997 -0.0512081 0)
(-0.375274 -0.0864511 0)
(-0.325126 -0.114341 0)
(-0.262649 -0.130782 0)
(-0.193784 -0.132556 0)
(-0.125795 -0.118283 0)
(-0.0663126 -0.0893379 0)
(-0.0230379 -0.0506073 0)
(-0.00322055 -0.0117948 0)
(-0.00630555 0.0334561 0)
(-0.0353761 0.0969904 0)
(-0.0906795 0.146607 0)
(-0.16039 0.178205 0)
(-0.236191 0.191516 0)
(-0.312003 0.187757 0)
(-0.382339 0.168668 0)
(-0.442301 0.136156 0)
(-0.487658 0.0923224 0)
(-0.514891 0.0397306 0)
(-0.521356 -0.0182689 0)
(-0.505561 -0.0773016 0)
(-0.467529 -0.131953 0)
(-0.409191 -0.176072 0)
(-0.334732 -0.203475 0)
(-0.250709 -0.209063 0)
(-0.165659 -0.190231 0)
(-0.0891755 -0.148244 0)
(-0.031856 -0.0892514 0)
(-0.00470823 -0.0253989 0)
(-0.00779447 0.0539434 0)
(-0.0430296 0.146555 0)
(-0.109094 0.215165 0)
(-0.191262 0.257202 0)
(-0.279633 0.273644 0)
(-0.367427 0.266745 0)
(-0.448754 0.23909 0)
(-0.518452 0.193299 0)
(-0.572054 0.132152 0)
(-0.605737 0.0589661 0)
(-0.616414 -0.0219394 0)
(-0.601998 -0.104891 0)
(-0.561816 -0.182743 0)
(-0.497158 -0.24716 0)
(-0.411866 -0.289416 0)
(-0.3128 -0.301825 0)
(-0.209735 -0.279691 0)
(-0.114578 -0.223353 0)
(-0.041562 -0.139741 0)
(-0.00628688 -0.0435924 0)
(-0.00914408 0.0783012 0)
(-0.0500234 0.204825 0)
(-0.125972 0.294889 0)
(-0.219558 0.348182 0)
(-0.319414 0.367585 0)
(-0.41819 0.356855 0)
(-0.509769 0.319687 0)
(-0.588921 0.259507 0)
(-0.651119 0.179721 0)
(-0.692338 0.0842565 0)
(-0.709049 -0.0218094 0)
(-0.698425 -0.131701 0)
(-0.658793 -0.23664 0)
(-0.590328 -0.32597 0)
(-0.49598 -0.387943 0)
(-0.382405 -0.411382 0)
(-0.260378 -0.388269 0)
(-0.144368 -0.316766 0)
(-0.0531431 -0.20382 0)
(-0.00821255 -0.0670328 0)
(-0.0103814 0.106191 0)
(-0.0564035 0.271036 0)
(-0.141265 0.384746 0)
(-0.244972 0.449955 0)
(-0.354827 0.472128 0)
(-0.463078 0.457029 0)
(-0.563607 0.409763 0)
(-0.65137 0.33465 0)
(-0.722016 0.235638 0)
(-0.771511 0.117031 0)
(-0.79598 -0.0156655 0)
(-0.791811 -0.154938 0)
(-0.75608 -0.290658 0)
(-0.687365 -0.409891 0)
(-0.587007 -0.497457 0)
(-0.460649 -0.537667 0)
(-0.319426 -0.517538 0)
(-0.180324 -0.431161 0)
(-0.0676456 -0.284119 0)
(-0.0107647 -0.0969554 0)
(-0.0115322 0.137301 0)
(-0.0622203 0.344384 0)
(-0.154909 0.48349 0)
(-0.267069 0.560914 0)
(-0.384786 0.585456 0)
(-0.500129 0.565476 0)
(-0.60728 0.507822 0)
(-0.701712 0.417814 0)
(-0.779594 0.299833 0)
(-0.837204 0.15827 0)
(-0.870574 -0.00138421 0)
(-0.875431 -0.17142 0)
(-0.847504 -0.340895 0)
(-0.78335 -0.494936 0)
(-0.681876 -0.614782 0)
(-0.546534 -0.679255 0)
(-0.387589 -0.668392 0)
(-0.223887 -0.569427 0)
(-0.0861438 -0.384078 0)
(-0.0142665 -0.135197 0)
(-0.0126614 0.171366 0)
(-0.0676521 0.424058 0)
(-0.167012 0.589617 0)
(-0.285487 0.678851 0)
(-0.408028 0.704843 0)
(-0.526822 0.679245 0)
(-0.636751 0.611053 0)
(-0.734254 0.506716 0)
(-0.81648 0.370949 0)
(-0.880484 0.207912 0)
(-0.922658 0.0225585 0)
(-0.938439 -0.177917 0)
(-0.922375 -0.382588 0)
(-0.868787 -0.575417 0)
(-0.773347 -0.73442 0)
(-0.635831 -0.832309 0)
(-0.463643 -0.839967 0)
(-0.275814 -0.733926 0)
(-0.109738 -0.507699 0)
(-0.0191299 -0.184235 0)
(-0.0139454 0.208296 0)
(-0.073216 0.509375 0)
(-0.178158 0.701355 0)
(-0.300251 0.800783 0)
(-0.423389 0.826311 0)
(-0.540322 0.793776 0)
(-0.64719 0.714798 0)
(-0.741965 0.597115 0)
(-0.823354 0.445691 0)
(-0.889793 0.264155 0)
(-0.938679 0.056383 0)
(-0.965806 -0.171764 0)
(-0.965084 -0.410494 0)
(-0.928781 -0.643905 0)
(-0.848823 -0.847928 0)
(-0.719736 -0.989378 0)
(-0.543326 -1.02815 0)
(-0.335637 -0.925272 0)
(-0.139532 -0.659078 0)
(-0.0259262 -0.247271 0)
(-0.0157957 0.248467 0)
(-0.0800873 0.600084 0)
(-0.189791 0.816714 0)
(-0.312088 0.922732 0)
(-0.430012 0.944266 0)
(-0.537631 0.902459 0)
(-0.633138 0.812069 0)
(-0.716744 0.682275 0)
(-0.789369 0.51822 0)
(-0.851504 0.32275 0)
(-0.902314 0.098192 0)
(-0.938848 -0.151741 0)
(-0.955329 -0.419673 0)
(-0.942753 -0.691661 0)
(-0.889437 -0.943673 0)
(-0.783453 -1.13824 0)
(-0.617837 -1.22367 0)
(-0.400727 -1.14047 0)
(-0.176517 -0.841544 0)
(-0.03549 -0.328376 0)
(-0.019078 0.293297 0)
(-0.0905615 0.696832 0)
(-0.204589 0.933456 0)
(-0.322495 1.03935 0)
(-0.42712 1.05099 0)
(-0.515212 0.996144 0)
(-0.588171 0.893141 0)
(-0.649296 0.752622 0)
(-0.702367 0.579785 0)
(-0.750535 0.376508 0)
(-0.795455 0.143249 0)
(-0.836403 -0.119058 0)
(-0.869203 -0.406671 0)
(-0.885046 -0.709716 0)
(-0.869797 -1.0073 0)
(-0.804957 -1.26121 0)
(-0.672007 -1.41005 0)
(-0.464791 -1.37023 0)
(-0.221207 -1.05608 0)
(-0.0490464 -0.4327 0)
(-0.0254918 0.34626 0)
(-0.108653 0.801666 0)
(-0.226499 1.04867 0)
(-0.332913 1.14307 0)
(-0.412528 1.13581 0)
(-0.467218 1.06258 0)
(-0.503218 0.945303 0)
(-0.527828 0.795738 0)
(-0.548174 0.618836 0)
(-0.570384 0.415327 0)
(-0.599014 0.183696 0)
(-0.636319 -0.0781454 0)
(-0.681043 -0.370886 0)
(-0.72658 -0.690635 0)
(-0.75877 -1.02333 0)
(-0.754327 -1.33554 0)
(-0.682197 -1.56192 0)
(-0.515449 -1.59544 0)
(-0.272588 -1.29844 0)
(-0.0682447 -0.566522 0)
(-0.038126 0.414555 0)
(-0.140532 0.918112 0)
(-0.259376 1.15727 0)
(-0.341392 1.22222 0)
(-0.378113 1.18371 0)
(-0.380634 1.08578 0)
(-0.362014 0.952937 0)
(-0.334247 0.797008 0)
(-0.307809 0.621984 0)
(-0.291529 0.427184 0)
(-0.292617 0.209242 0)
(-0.316415 -0.0366761 0)
(-0.365439 -0.315653 0)
(-0.43733 -0.630773 0)
(-0.521401 -0.97808 0)
(-0.593909 -1.33578 0)
(-0.613994 -1.64485 0)
(-0.530289 -1.78342 0)
(-0.325257 -1.55422 0)
(-0.0945719 -0.736599 0)
(-0.0617356 0.511857 0)
(-0.193129 1.04939 0)
(-0.300866 1.24768 0)
(-0.332712 1.25734 0)
(-0.298602 1.17327 0)
(-0.224483 1.04561 0)
(-0.131655 0.898465 0)
(-0.0364246 0.741472 0)
(0.0484544 0.576369 0)
(0.112743 0.400673 0)
(0.147807 0.209448 0)
(0.146113 -0.00403314 0)
(0.101584 -0.248119 0)
(0.0111203 -0.532129 0)
(-0.121721 -0.86354 0)
(-0.279424 -1.23842 0)
(-0.41962 -1.61793 0)
(-0.470378 -1.88524 0)
(-0.362406 -1.79237 0)
(-0.126422 -0.949355 0)
(-0.10036 0.663873 0)
(-0.264767 1.19022 0)
(-0.321731 1.28945 0)
(-0.252928 1.21239 0)
(-0.107567 1.07288 0)
(0.0701554 0.917802 0)
(0.25294 0.764657 0)
(0.423349 0.617353 0)
(0.569444 0.473762 0)
(0.682261 0.329237 0)
(0.754021 0.177799 0)
(0.776967 0.0121573 0)
(0.743023 -0.177094 0)
(0.644119 -0.402611 0)
(0.474559 -0.68093 0)
(0.238405 -1.02802 0)
(-0.0348614 -1.43897 0)
(-0.270523 -1.83419 0)
(-0.342152 -1.9553 0)
(-0.149868 -1.20975 0)
(-0.140691 0.908312 0)
(-0.306712 1.29777 0)
(-0.206097 1.20599 0)
(0.047201 1.02258 0)
(0.34491 0.840391 0)
(0.638219 0.679546 0)
(0.906056 0.542193 0)
(1.13784 0.423652 0)
(1.32783 0.317392 0)
(1.4721 0.21707 0)
(1.56655 0.116712 0)
(1.60564 0.0100836 0)
(1.58179 -0.110449 0)
(1.48436 -0.256392 0)
(1.29961 -0.446369 0)
(1.01413 -0.709432 0)
(0.626989 -1.07892 0)
(0.177511 -1.54903 0)
(-0.171522 -1.93201 0)
(-0.111837 -1.48495 0)
(-0.0346625 1.16602 0)
(-0.0499415 1.21195 0)
(0.399446 0.890158 0)
(0.904292 0.647393 0)
(1.33622 0.47837 0)
(1.69367 0.356125 0)
(1.98661 0.265905 0)
(2.22163 0.196902 0)
(2.40386 0.14083 0)
(2.53672 0.0917457 0)
(2.62123 0.0452594 0)
(2.65571 -0.00237944 0)
(2.63522 -0.0552839 0)
(2.55026 -0.119853 0)
(2.38458 -0.20804 0)
(2.11193 -0.344779 0)
(1.69208 -0.5799 0)
(1.07611 -0.983867 0)
(0.384255 -1.52433 0)
(0.18306 -1.52573 0)
(1.31184 0.644515 0)
(1.68073 0.570717 0)
(2.34989 0.360854 0)
(2.87391 0.226047 0)
(3.21247 0.145931 0)
(3.44265 0.096042 0)
(3.60855 0.0640875 0)
(3.72931 0.0428457 0)
(3.81534 0.0276934 0)
(3.87283 0.0157802 0)
(3.90482 0.00534744 0)
(3.91195 -0.00480107 0)
(3.89266 -0.0158192 0)
(3.84259 -0.029275 0)
(3.75247 -0.0483254 0)
(3.60247 -0.0807099 0)
(3.34624 -0.146629 0)
(2.86083 -0.292231 0)
(2.06694 -0.568935 0)
(1.50177 -0.705996 0)
)
;

boundaryField
{
    movingWall
    {
        type            fixedValue;
        value           uniform (4.6 0 0);
    }
    fixedWalls
    {
        type            noSlip;
    }
    frontAndBack
    {
        type            empty;
    }
}


// ************************************************************************* //
