/*--------------------------------*- C++ -*----------------------------------*\
  =========                 |
  \\      /  F ield         | OpenFOAM: The Open Source CFD Toolbox
   \\    /   O peration     | Website:  https://openfoam.org
    \\  /    A nd           | Version:  8
     \\/     M anipulation  |
\*---------------------------------------------------------------------------*/
FoamFile
{
    version     2.0;
    format      ascii;
    class       volScalarField;
    location    "0.1";
    object      p;
}
// * * * * * * * * * * * * * * * * * * * * * * * * * * * * * * * * * * * * * //

dimensions      [0 2 -2 0 0 0 0];

internalField   nonuniform List<scalar> 
400
(
-3.64848e-07
-0.021236
-0.0464702
-0.0653992
-0.0724386
-0.0652054
-0.0434263
-0.00821092
0.0383005
0.093025
0.151951
0.210242
0.262553
0.303616
0.329084
0.336534
0.32646
0.303092
0.274807
0.253795
0.0210658
-0.000951191
-0.0206771
-0.0335214
-0.0371537
-0.0299585
-0.0116046
0.0171901
0.0548827
0.0991363
0.146819
0.194101
0.236731
0.270536
0.292112
0.299608
0.293473
0.276799
0.25446
0.233072
0.0477164
0.0173153
-0.00383013
-0.0153805
-0.0182468
-0.0117622
0.00417394
0.0289678
0.0614595
0.0998402
0.14156
0.183358
0.221477
0.252107
0.272
0.279192
0.273724
0.25772
0.233192
0.203249
0.0701375
0.0285554
0.00261333
-0.0103619
-0.0140738
-0.00871288
0.00552821
0.0280755
0.058036
0.0939822
0.133737
0.174306
0.212016
0.242904
0.263324
0.270699
0.264398
0.245738
0.214599
0.172254
0.0814185
0.0285013
-0.00304552
-0.0183102
-0.0234124
-0.0192464
-0.00622309
0.0151338
0.0441945
0.0798783
0.12031
0.162634
0.203054
0.237161
0.260535
0.269609
0.262804
0.240614
0.20114
0.144691
0.0761661
0.01239
-0.024805
-0.0425788
-0.0491792
-0.0460554
-0.0337325
-0.0126105
0.0169944
0.0543826
0.0979891
0.145057
0.191545
0.232367
0.26198
0.275391
0.269677
0.244286
0.195562
0.12334
0.049736
-0.0242917
-0.0668437
-0.0869831
-0.0949164
-0.0925493
-0.0804263
-0.0587242
-0.0273425
0.0135087
0.0626756
0.117565
0.173873
0.225673
0.265946
0.287742
0.286183
0.259147
0.200783
0.110576
-0.00223248
-0.0858962
-0.133293
-0.155361
-0.164237
-0.16226
-0.149925
-0.127072
-0.0930277
-0.0473233
0.00951501
0.0752625
0.145483
0.213367
0.270101
0.30613
0.313743
0.288289
0.220639
0.109632
-0.084066
-0.176821
-0.228348
-0.251578
-0.260725
-0.258642
-0.245747
-0.22143
-0.184256
-0.132801
-0.0666252
0.0127896
0.101207
0.191091
0.271635
0.329977
0.354383
0.336133
0.260858
0.125831
-0.200191
-0.301653
-0.35626
-0.379294
-0.387489
-0.384434
-0.370518
-0.344583
-0.304211
-0.246688
-0.17015
-0.0747771
0.0359815
0.154326
0.267534
0.35883
0.411028
0.409087
0.330174
0.168039
-0.355386
-0.465439
-0.521337
-0.541611
-0.546478
-0.540714
-0.524803
-0.496965
-0.45356
-0.390199
-0.303048
-0.190269
-0.053657
0.0995968
0.255424
0.392926
0.488031
0.516409
0.441828
0.25069
-0.555521
-0.674301
-0.728049
-0.740614
-0.737595
-0.725689
-0.705655
-0.674991
-0.628566
-0.559896
-0.462597
-0.332002
-0.16717
0.0266454
0.235318
0.434445
0.592162
0.671436
0.615668
0.396928
-0.809437
-0.93673
-0.981267
-0.976757
-0.95757
-0.933297
-0.905046
-0.869355
-0.819215
-0.745583
-0.638962
-0.491075
-0.297082
-0.0586142
0.212268
0.489626
0.734246
0.89336
0.881215
0.643855
-1.13349
-1.26606
-1.28652
-1.24788
-1.19855
-1.15176
-1.10855
-1.06384
-1.00808
-0.929107
-0.813774
-0.649562
-0.426706
-0.141438
0.199101
0.571138
0.931096
1.20945
1.28227
1.05197
-1.56185
-1.68469
-1.64956
-1.54721
-1.44609
-1.36214
-1.29459
-1.23523
-1.17084
-1.08522
-0.961154
-0.781427
-0.530651
-0.19814
0.217046
0.698777
1.20593
1.65614
1.88239
1.72073
-2.16733
-2.23
-2.07424
-1.86
-1.6768
-1.53746
-1.43506
-1.35522
-1.27943
-1.18574
-1.05266
-0.857999
-0.580382
-0.201144
0.291716
0.896447
1.58561
2.27623
2.7664
2.80631
-3.1036
-2.95993
-2.55953
-2.16283
-1.85959
-1.64575
-1.50019
-1.39726
-1.30922
-1.2083
-1.06741
-0.859425
-0.556815
-0.132051
0.440908
1.18229
2.09282
3.11105
4.03919
4.54886
-4.7489
-3.94967
-3.07115
-2.40548
-1.94698
-1.64777
-1.46114
-1.34171
-1.24902
-1.14785
-1.00606
-0.79201
-0.472446
-0.0101469
0.638551
1.5253
2.69787
4.15885
5.8438
7.44645
-8.16919
-5.2237
-3.3565
-2.365
-1.7824
-1.44094
-1.25561
-1.15616
-1.08879
-1.01293
-0.894255
-0.69949
-0.39294
0.0695865
0.748468
1.73374
3.15157
5.18028
8.27507
12.6548
-14.5647
-6.45122
-2.89362
-1.69553
-1.17115
-0.922373
-0.834681
-0.824948
-0.835389
-0.827563
-0.771026
-0.636707
-0.391874
0.00432981
0.613343
1.54487
3.01749
5.54097
10.6799
20.3868
)
;

boundaryField
{
    movingWall
    {
        type            zeroGradient;
    }
    fixedWalls
    {
        type            zeroGradient;
    }
    frontAndBack
    {
        type            empty;
    }
}


// ************************************************************************* //
