/*--------------------------------*- C++ -*----------------------------------*\
  =========                 |
  \\      /  F ield         | OpenFOAM: The Open Source CFD Toolbox
   \\    /   O peration     | Website:  https://openfoam.org
    \\  /    A nd           | Version:  8
     \\/     M anipulation  |
\*---------------------------------------------------------------------------*/
FoamFile
{
    version     2.0;
    format      ascii;
    class       volScalarField;
    location    "0.2";
    object      p;
}
// * * * * * * * * * * * * * * * * * * * * * * * * * * * * * * * * * * * * * //

dimensions      [0 2 -2 0 0 0 0];

internalField   nonuniform List<scalar> 
400
(
3.32366e-05
-0.0245043
-0.0535843
-0.0754083
-0.0837205
-0.0758818
-0.0515493
-0.01187
0.0408673
0.103263
0.170766
0.237759
0.297941
0.345049
0.37391
0.381679
0.369056
0.34121
0.308119
0.283984
0.0244746
-0.000958443
-0.0236684
-0.0384844
-0.0428932
-0.0351194
-0.0147501
0.0175081
0.060037
0.110284
0.164713
0.218892
0.267815
0.306514
0.33092
0.338845
0.330899
0.310874
0.284704
0.260188
0.0552938
0.0201887
-0.00410105
-0.0173925
-0.0209449
-0.0140699
0.00339041
0.0308876
0.0672651
0.110603
0.158062
0.205882
0.249632
0.284742
0.307291
0.314923
0.307755
0.28846
0.259715
0.225353
0.080999
0.0330374
0.00330731
-0.0115943
-0.0161961
-0.0107968
0.0044503
0.0290588
0.0622286
0.102533
0.147608
0.194023
0.237426
0.273025
0.296364
0.304315
0.296174
0.273696
0.237177
0.188462
0.0933411
0.03246
-0.00359177
-0.0211218
-0.0274856
-0.0237794
-0.0103659
0.012387
0.0440583
0.0837022
0.129369
0.177822
0.224553
0.264191
0.291287
0.301454
0.29281
0.26614
0.219775
0.154605
0.0858547
0.0127857
-0.0295808
-0.0500393
-0.058409
-0.0564006
-0.0444496
-0.0226939
0.00891089
0.0499658
0.0989722
0.152866
0.206865
0.25475
0.289642
0.305329
0.298214
0.267806
0.210473
0.126753
0.0530441
-0.0312721
-0.0795602
-0.102863
-0.113217
-0.112819
-0.102046
-0.0806693
-0.0480358
-0.00384211
0.0510211
0.113786
0.179414
0.240667
0.288798
0.315074
0.31337
0.281213
0.212435
0.1074
-0.0100905
-0.104665
-0.158237
-0.184003
-0.196118
-0.197211
-0.187511
-0.166276
-0.132044
-0.0835543
-0.020786
0.0540972
0.136021
0.216728
0.285222
0.329413
0.339478
0.309682
0.229934
0.100082
-0.108272
-0.212184
-0.270198
-0.297712
-0.311088
-0.313462
-0.304881
-0.283955
-0.248177
-0.194979
-0.122972
-0.0331879
0.0697548
0.17685
0.274658
0.346848
0.378338
0.358078
0.26952
0.110887
-0.24604
-0.358571
-0.41984
-0.447749
-0.461285
-0.464345
-0.456853
-0.43667
-0.399988
-0.342513
-0.260891
-0.154284
-0.0260254
0.114816
0.252555
0.365913
0.432701
0.433585
0.341378
0.150234
-0.427982
-0.548778
-0.611327
-0.636924
-0.648207
-0.650353
-0.643342
-0.624215
-0.5876
-0.527022
-0.436491
-0.312365
-0.155553
0.0260344
0.215338
0.386002
0.506963
0.546739
0.461134
0.235381
-0.659513
-0.788634
-0.848692
-0.866567
-0.870659
-0.868305
-0.859777
-0.841225
-0.80542
-0.743235
-0.645363
-0.504374
-0.317379
-0.0893859
0.162966
0.409262
0.608584
0.712995
0.652414
0.394308
-0.948959
-1.08631
-1.13613
-1.13587
-1.12355
-1.10983
-1.09542
-1.07533
-1.04006
-0.97733
-0.873889
-0.717643
-0.500531
-0.222578
0.102762
0.443753
0.750539
0.955114
0.950611
0.672172
-1.3126
-1.45512
-1.47837
-1.44092
-1.39648
-1.36
-1.33217
-1.30614
-1.26939
-1.20587
-1.09786
-0.927931
-0.68179
-0.352459
0.0532483
0.507049
0.954341
1.30629
1.40854
1.14268
-1.78617
-1.91842
-1.88039
-1.77269
-1.67185
-1.59612
-1.54421
-1.50567
-1.46366
-1.39743
-1.28428
-1.10112
-0.826809
-0.445874
0.0450069
0.627585
1.25127
1.81198
2.10293
1.92617
-2.44838
-2.51652
-2.34538
-2.11378
-1.92282
-1.78736
-1.69929
-1.64121
-1.58968
-1.51799
-1.3979
-1.20055
-0.89775
-0.464689
0.115068
0.840792
1.67933
2.52693
3.13583
3.2084
-3.46942
-3.3142
-2.87214
-2.43828
-2.11524
-1.89862
-1.76452
-1.68274
-1.6198
-1.54152
-1.4136
-1.20142
-0.86956
-0.383222
0.290131
1.1753
2.27285
3.50592
4.63364
5.26994
-5.27338
-4.39801
-3.42521
-2.69292
-2.1985
-1.88816
-1.70928
-1.60981
-1.54197
-1.46298
-1.33277
-1.1115
-0.757267
-0.224089
0.54069
1.59788
3.003
4.75524
6.77135
8.68931
-9.06272
-5.79683
-3.7224
-2.62916
-1.99784
-1.64055
-1.46287
-1.38525
-1.34488
-1.29282
-1.18649
-0.984014
-0.640801
-0.102403
0.703312
1.88184
3.58117
6.0061
9.66373
14.784
-16.2607
-7.13936
-3.16572
-1.85158
-1.28943
-1.03541
-0.966226
-0.988731
-1.03535
-1.05936
-1.02245
-0.887281
-0.612101
-0.145623
0.586318
1.71272
3.49083
6.51058
12.5262
23.7046
)
;

boundaryField
{
    movingWall
    {
        type            zeroGradient;
    }
    fixedWalls
    {
        type            zeroGradient;
    }
    frontAndBack
    {
        type            empty;
    }
}


// ************************************************************************* //
