/*--------------------------------*- C++ -*----------------------------------*\
  =========                 |
  \\      /  F ield         | OpenFOAM: The Open Source CFD Toolbox
   \\    /   O peration     | Website:  https://openfoam.org
    \\  /    A nd           | Version:  8
     \\/     M anipulation  |
\*---------------------------------------------------------------------------*/
FoamFile
{
    version     2.0;
    format      ascii;
    class       volVectorField;
    location    "0.2";
    object      U;
}
// * * * * * * * * * * * * * * * * * * * * * * * * * * * * * * * * * * * * * //

dimensions      [0 1 -1 0 0 0 0];

internalField   nonuniform List<vector> 
400
(
(0.0010036 -0.00100488 0)
(0.000367789 0.00054487 0)
(-0.00527863 0.00237458 0)
(-0.0148299 0.00361393 0)
(-0.0266465 0.00422659 0)
(-0.0392242 0.00431332 0)
(-0.0512736 0.00397301 0)
(-0.0617058 0.00327904 0)
(-0.0696005 0.0022843 0)
(-0.0741975 0.00104177 0)
(-0.0749357 -0.000372501 0)
(-0.0715362 -0.00184279 0)
(-0.0641052 -0.00320836 0)
(-0.0532276 -0.00427355 0)
(-0.0400111 -0.00483347 0)
(-0.0260463 -0.00471419 0)
(-0.0132514 -0.00382274 0)
(-0.00358667 -0.00220179 0)
(0.00137251 -0.000152859 0)
(0.00125912 0.00122018 0)
(-0.00048364 -0.000466982 0)
(-0.00729752 0.00724332 0)
(-0.0246725 0.0152127 0)
(-0.0497705 0.0207385 0)
(-0.0792953 0.023467 0)
(-0.110138 0.0236199 0)
(-0.1394 0.0215353 0)
(-0.16451 0.0175411 0)
(-0.183282 0.0119469 0)
(-0.193961 0.00510366 0)
(-0.195331 -0.00252056 0)
(-0.186879 -0.010288 0)
(-0.168985 -0.0173854 0)
(-0.143072 -0.0228811 0)
(-0.111648 -0.0258495 0)
(-0.078184 -0.0255581 0)
(-0.0467285 -0.0216937 0)
(-0.0212763 -0.0145977 0)
(-0.00511312 -0.00563292 0)
(0.000148232 0.00152567 0)
(-0.00248073 0.00523436 0)
(-0.0164116 0.0248891 0)
(-0.0456184 0.0430071 0)
(-0.0848155 0.0554449 0)
(-0.129277 0.0613904 0)
(-0.174868 0.0611355 0)
(-0.217663 0.0553335 0)
(-0.254127 0.0447323 0)
(-0.281244 0.0301348 0)
(-0.296608 0.0124944 0)
(-0.298576 -0.00695283 0)
(-0.286477 -0.0265981 0)
(-0.26084 -0.0444681 0)
(-0.223574 -0.0583652 0)
(-0.17803 -0.0661556 0)
(-0.128846 -0.0661933 0)
(-0.0814608 -0.0578311 0)
(-0.0413198 -0.0419227 0)
(-0.0133922 -0.0213842 0)
(-0.00153666 -0.00261963 0)
(-0.00426352 0.0158663 0)
(-0.0249666 0.0527258 0)
(-0.0655786 0.0837278 0)
(-0.117984 0.104311 0)
(-0.175939 0.113585 0)
(-0.234467 0.112076 0)
(-0.288927 0.100856 0)
(-0.335149 0.0811966 0)
(-0.369573 0.054519 0)
(-0.389343 0.0225358 0)
(-0.392469 -0.01256 0)
(-0.378059 -0.0479658 0)
(-0.346581 -0.0802866 0)
(-0.300101 -0.10576 0)
(-0.242416 -0.12072 0)
(-0.178965 -0.12229 0)
(-0.116353 -0.109226 0)
(-0.0615115 -0.0827281 0)
(-0.0214897 -0.0471408 0)
(-0.00304663 -0.0111866 0)
(-0.00580928 0.030878 0)
(-0.0327338 0.0899488 0)
(-0.0840702 0.136259 0)
(-0.14886 0.165793 0)
(-0.219313 0.178162 0)
(-0.289695 0.174451 0)
(-0.354827 0.156322 0)
(-0.410122 0.125663 0)
(-0.451663 0.0845726 0)
(-0.476253 0.0355676 0)
(-0.481556 -0.0181548 0)
(-0.466327 -0.0725259 0)
(-0.430726 -0.122603 0)
(-0.376642 -0.162843 0)
(-0.307978 -0.18772 0)
(-0.230734 -0.192694 0)
(-0.152647 -0.175437 0)
(-0.0823826 -0.137037 0)
(-0.0295822 -0.0829151 0)
(-0.00442684 -0.0238865 0)
(-0.00717938 0.0498167 0)
(-0.039798 0.135901 0)
(-0.101094 0.199926 0)
(-0.177411 0.239191 0)
(-0.259471 0.254415 0)
(-0.340862 0.247639 0)
(-0.416017 0.22134 0)
(-0.4801 0.178122 0)
(-0.528982 0.120774 0)
(-0.559206 0.0525733 0)
(-0.568057 -0.0223426 0)
(-0.553791 -0.0986819 0)
(-0.515982 -0.169917 0)
(-0.455984 -0.22854 0)
(-0.377426 -0.266771 0)
(-0.286596 -0.277797 0)
(-0.192325 -0.257451 0)
(-0.105302 -0.205984 0)
(-0.0383832 -0.129438 0)
(-0.00587432 -0.0407874 0)
(-0.00842219 0.072321 0)
(-0.0462577 0.189901 0)
(-0.116704 0.273924 0)
(-0.20358 0.323656 0)
(-0.296222 0.341531 0)
(-0.38766 0.330981 0)
(-0.472101 0.295556 0)
(-0.544637 0.238671 0)
(-0.601093 0.163775 0)
(-0.637846 0.0747817 0)
(-0.651809 -0.0234054 0)
(-0.640609 -0.124441 0)
(-0.602966 -0.220292 0)
(-0.539287 -0.301368 0)
(-0.452449 -0.357214 0)
(-0.348588 -0.377963 0)
(-0.23742 -0.356547 0)
(-0.131869 -0.291289 0)
(-0.0487538 -0.188145 0)
(-0.00761491 -0.0624297 0)
(-0.0095695 0.0980883 0)
(-0.0521818 0.251258 0)
(-0.130909 0.357304 0)
(-0.227162 0.418083 0)
(-0.329009 0.438367 0)
(-0.429082 0.423461 0)
(-0.521569 0.378271 0)
(-0.601729 0.307118 0)
(-0.665556 0.214045 0)
(-0.709437 0.103405 0)
(-0.729998 -0.0194234 0)
(-0.724194 -0.147356 0)
(-0.689663 -0.271098 0)
(-0.625439 -0.379004 0)
(-0.533023 -0.457588 0)
(-0.4177 -0.493039 0)
(-0.289528 -0.473976 0)
(-0.16362 -0.395156 0)
(-0.0616004 -0.261236 0)
(-0.00989237 -0.0898588 0)
(-0.0106527 0.126855 0)
(-0.0576475 0.31927 0)
(-0.14371 0.448953 0)
(-0.247843 0.521006 0)
(-0.356944 0.543249 0)
(-0.463455 0.52341 0)
(-0.561831 0.468075 0)
(-0.64781 0.382578 0)
(-0.717873 0.271465 0)
(-0.768702 0.139272 0)
(-0.796862 -0.00853961 0)
(-0.798731 -0.164625 0)
(-0.770771 -0.318894 0)
(-0.71025 -0.457932 0)
(-0.616562 -0.565077 0)
(-0.493125 -0.621715 0)
(-0.349285 -0.610415 0)
(-0.201801 -0.519982 0)
(-0.0778469 -0.351608 0)
(-0.0129853 -0.124641 0)
(-0.0117403 0.158419 0)
(-0.0628524 0.393261 0)
(-0.15527 0.547545 0)
(-0.265375 0.630432 0)
(-0.378966 0.653683 0)
(-0.488579 0.628116 0)
(-0.589323 0.562382 0)
(-0.677836 0.462958 0)
(-0.751516 0.334796 0)
(-0.807765 0.182325 0)
(-0.843478 0.0106153 0)
(-0.854768 -0.173362 0)
(-0.837038 -0.359452 0)
(-0.785568 -0.533134 0)
(-0.696914 -0.674852 0)
(-0.571316 -0.760622 0)
(-0.41571 -0.765059 0)
(-0.247089 -0.667727 0)
(-0.0984379 -0.462644 0)
(-0.0172457 -0.168892 0)
(-0.0130033 0.192761 0)
(-0.0683025 0.472701 0)
(-0.166175 0.651535 0)
(-0.279836 0.743666 0)
(-0.394052 0.766036 0)
(-0.501892 0.733408 0)
(-0.599659 0.656948 0)
(-0.685441 0.544419 0)
(-0.758088 0.401096 0)
(-0.816278 0.231007 0)
(-0.8578 0.038328 0)
(-0.879057 -0.171096 0)
(-0.874827 -0.388036 0)
(-0.838505 -0.598001 0)
(-0.763297 -0.779492 0)
(-0.64484 -0.90327 0)
(-0.485274 -0.934343 0)
(-0.299155 -0.838895 0)
(-0.124333 -0.597825 0)
(-0.0231622 -0.225351 0)
(-0.0148285 0.230306 0)
(-0.0750991 0.557473 0)
(-0.177763 0.759173 0)
(-0.291867 0.857085 0)
(-0.401341 0.875171 0)
(-0.500522 0.833216 0)
(-0.587685 0.745394 0)
(-0.663055 0.620881 0)
(-0.727562 0.465177 0)
(-0.781769 0.281648 0)
(-0.825046 0.0731044 0)
(-0.854857 -0.156498 0)
(-0.866146 -0.400028 0)
(-0.851035 -0.644631 0)
(-0.799391 -0.868682 0)
(-0.701087 -1.03899 0)
(-0.550633 -1.11029 0)
(-0.355918 -1.03096 0)
(-0.15644 -0.760028 0)
(-0.0314564 -0.297513 0)
(-0.0180186 0.27245 0)
(-0.0853495 0.648273 0)
(-0.192427 0.868432 0)
(-0.302665 0.965734 0)
(-0.399818 0.973919 0)
(-0.480818 0.919084 0)
(-0.547037 0.818809 0)
(-0.601661 0.683675 0)
(-0.64832 0.519252 0)
(-0.690028 0.328009 0)
(-0.728381 0.111038 0)
(-0.762757 -0.130226 0)
(-0.789366 -0.391896 0)
(-0.800272 -0.664658 0)
(-0.782888 -0.929484 0)
(-0.721033 -1.15218 0)
(-0.598965 -1.27866 0)
(-0.412272 -1.23609 0)
(-0.195353 -0.950239 0)
(-0.0432102 -0.389842 0)
(-0.0241373 0.322476 0)
(-0.10269 0.747016 0)
(-0.213567 0.976539 0)
(-0.313106 1.06245 0)
(-0.386824 1.05225 0)
(-0.436604 0.979595 0)
(-0.468488 0.865475 0)
(-0.489501 0.721517 0)
(-0.506432 0.553008 0)
(-0.525043 0.361283 0)
(-0.549526 0.145538 0)
(-0.581838 -0.0956239 0)
(-0.620627 -0.362368 0)
(-0.659627 -0.65072 0)
(-0.685819 -0.947543 0)
(-0.678311 -1.22246 0)
(-0.609923 -1.41724 0)
(-0.457961 -1.43797 0)
(-0.240542 -1.16514 0)
(-0.0599385 -0.5079 0)
(-0.036003 0.387053 0)
(-0.132615 0.856792 0)
(-0.2442 1.07843 0)
(-0.320511 1.13605 0)
(-0.353759 1.09595 0)
(-0.354665 0.999768 0)
(-0.335816 0.870951 0)
(-0.308707 0.721099 0)
(-0.283264 0.554475 0)
(-0.267715 0.370962 0)
(-0.268611 0.167885 0)
(-0.290605 -0.0588228 0)
(-0.335573 -0.313464 0)
(-0.400782 -0.598436 0)
(-0.475859 -0.909558 0)
(-0.538847 -1.22638 0)
(-0.553134 -1.49535 0)
(-0.473891 -1.60829 0)
(-0.287938 -1.39289 0)
(-0.08316 -0.65794 0)
(-0.0578826 0.478665 0)
(-0.181021 0.980008 0)
(-0.281094 1.16267 0)
(-0.309435 1.16783 0)
(-0.275843 1.08473 0)
(-0.205104 0.960812 0)
(-0.117583 0.819075 0)
(-0.0287897 0.668893 0)
(0.0493105 0.512237 0)
(0.107286 0.347108 0)
(0.137371 0.16918 0)
(0.133018 -0.0275669 0)
(0.0892105 -0.250633 0)
(0.00390571 -0.508308 0)
(-0.118601 -0.806811 0)
(-0.261272 -1.14142 0)
(-0.385111 -1.47556 0)
(-0.425754 -1.70373 0)
(-0.323668 -1.60711 0)
(-0.111936 -0.846362 0)
(-0.0931157 0.620553 0)
(-0.245248 1.11058 0)
(-0.295622 1.19987 0)
(-0.228609 1.12371 0)
(-0.0908789 0.989152 0)
(0.0758593 0.840513 0)
(0.245805 0.694405 0)
(0.402605 0.554609 0)
(0.535254 0.419268 0)
(0.63568 0.28417 0)
(0.697039 0.143852 0)
(0.712654 -0.00841784 0)
(0.675657 -0.181325 0)
(0.579403 -0.386535 0)
(0.419796 -0.638843 0)
(0.202047 -0.951597 0)
(-0.0454616 -1.31794 0)
(-0.254005 -1.6636 0)
(-0.311121 -1.75752 0)
(-0.134705 -1.07918 0)
(-0.128336 0.845889 0)
(-0.278511 1.20712 0)
(-0.180002 1.11866 0)
(0.0588367 0.94422 0)
(0.336987 0.77131 0)
(0.609012 0.619116 0)
(0.855334 0.489621 0)
(1.06633 0.378356 0)
(1.23702 0.279202 0)
(1.36418 0.186267 0)
(1.44443 0.0940123 0)
(1.47319 -0.00339004 0)
(1.44389 -0.113194 0)
(1.34722 -0.246193 0)
(1.1713 -0.419581 0)
(0.905063 -0.659266 0)
(0.5495 -0.993112 0)
(0.143135 -1.41184 0)
(-0.1656 -1.74485 0)
(-0.104666 -1.3308 0)
(-0.025181 1.0763 0)
(-0.033653 1.12039 0)
(0.385637 0.821685 0)
(0.854199 0.594386 0)
(1.25289 0.435994 0)
(1.5806 0.321891 0)
(1.84694 0.23808 0)
(2.05845 0.174282 0)
(2.22032 0.122725 0)
(2.33613 0.0778944 0)
(2.4072 0.0357351 0)
(2.4323 -0.00724327 0)
(2.40717 -0.0550296 0)
(2.32328 -0.113698 0)
(2.16573 -0.194606 0)
(1.91067 -0.320824 0)
(1.52197 -0.536685 0)
(0.957627 -0.902536 0)
(0.331527 -1.38647 0)
(0.15664 -1.37974 0)
(1.20387 0.591006 0)
(1.54733 0.522942 0)
(2.16558 0.329064 0)
(2.64666 0.204608 0)
(2.95521 0.130927 0)
(3.16339 0.0853563 0)
(3.31213 0.0563762 0)
(3.41926 0.0372286 0)
(3.49457 0.0236449 0)
(3.54389 0.0130277 0)
(3.57017 0.00378533 0)
(3.57411 -0.00517374 0)
(3.55435 -0.0149388 0)
(3.50694 -0.0270231 0)
(3.42313 -0.0445036 0)
(3.28434 -0.0748021 0)
(3.04703 -0.136629 0)
(2.59844 -0.271311 0)
(1.87323 -0.522685 0)
(1.36298 -0.643609 0)
)
;

boundaryField
{
    movingWall
    {
        type            fixedValue;
        value           uniform (4.2 0 0);
    }
    fixedWalls
    {
        type            noSlip;
    }
    frontAndBack
    {
        type            empty;
    }
}


// ************************************************************************* //
