/*--------------------------------*- C++ -*----------------------------------*\
  =========                 |
  \\      /  F ield         | OpenFOAM: The Open Source CFD Toolbox
   \\    /   O peration     | Website:  https://openfoam.org
    \\  /    A nd           | Version:  8
     \\/     M anipulation  |
\*---------------------------------------------------------------------------*/
FoamFile
{
    version     2.0;
    format      ascii;
    class       volVectorField;
    location    "0.3";
    object      U;
}
// * * * * * * * * * * * * * * * * * * * * * * * * * * * * * * * * * * * * * //

dimensions      [0 1 -1 0 0 0 0];

internalField   nonuniform List<vector> 
400
(
(0.00118589 -0.00119232 0)
(0.00039826 0.000660752 0)
(-0.00635035 0.00282509 0)
(-0.0177002 0.00427891 0)
(-0.0317043 0.00499815 0)
(-0.0466121 0.00511186 0)
(-0.0609362 0.00473545 0)
(-0.0734106 0.00394536 0)
(-0.082938 0.00278993 0)
(-0.0885777 0.00131918 0)
(-0.0896035 -0.00038305 0)
(-0.085621 -0.00217619 0)
(-0.0767156 -0.00385581 0)
(-0.0635831 -0.00516878 0)
(-0.0475916 -0.00585074 0)
(-0.0307237 -0.00568305 0)
(-0.0153593 -0.00456081 0)
(-0.00388769 -0.00256218 0)
(0.00184522 -9.33049e-05 0)
(0.00154978 0.00149837 0)
(-0.000611409 -0.00051144 0)
(-0.00882105 0.00870054 0)
(-0.0295961 0.0181307 0)
(-0.0594809 0.0246252 0)
(-0.0945629 0.0278353 0)
(-0.131215 0.0280595 0)
(-0.166068 0.0256895 0)
(-0.196108 0.0210703 0)
(-0.218724 0.0145113 0)
(-0.231755 0.00637928 0)
(-0.233645 -0.00279231 0)
(-0.223674 -0.0122285 0)
(-0.202223 -0.0209055 0)
(-0.170987 -0.0276319 0)
(-0.133046 -0.0312252 0)
(-0.0926929 -0.030769 0)
(-0.054928 -0.0259155 0)
(-0.0246248 -0.0171788 0)
(-0.00565708 -0.00635408 0)
(0.000296904 0.0020335 0)
(-0.00302416 0.00638597 0)
(-0.0197892 0.0298637 0)
(-0.0547289 0.0513033 0)
(-0.101445 0.0659306 0)
(-0.154335 0.0729302 0)
(-0.208577 0.072718 0)
(-0.259602 0.0660443 0)
(-0.303257 0.0537008 0)
(-0.335934 0.0365169 0)
(-0.354678 0.0155211 0)
(-0.357396 -0.00786175 0)
(-0.343145 -0.0316797 0)
(-0.312456 -0.0534638 0)
(-0.267592 -0.0704229 0)
(-0.212641 -0.0798434 0)
(-0.153323 -0.0796669 0)
(-0.0963546 -0.0691674 0)
(-0.0484088 -0.0495814 0)
(-0.0154041 -0.0247353 0)
(-0.00166285 -0.00261338 0)
(-0.00518525 0.0192313 0)
(-0.0300901 0.0632507 0)
(-0.0786599 0.0999214 0)
(-0.141108 0.12412 0)
(-0.210054 0.135038 0)
(-0.279714 0.133405 0)
(-0.344692 0.120443 0)
(-0.400096 0.097499 0)
(-0.441666 0.0660577 0)
(-0.465895 0.0279833 0)
(-0.470242 -0.014192 0)
(-0.453453 -0.0570778 0)
(-0.415934 -0.0964442 0)
(-0.360087 -0.127529 0)
(-0.290505 -0.145673 0)
(-0.213882 -0.147261 0)
(-0.1384 -0.130847 0)
(-0.0726147 -0.0981903 0)
(-0.0250262 -0.0550481 0)
(-0.00342944 -0.0124692 0)
(-0.00705608 0.0373583 0)
(-0.0394007 0.107862 0)
(-0.100704 0.162595 0)
(-0.177806 0.197293 0)
(-0.26154 0.211865 0)
(-0.345275 0.207735 0)
(-0.423026 0.18679 0)
(-0.489424 0.151023 0)
(-0.539788 0.102628 0)
(-0.570183 0.0443368 0)
(-0.577605 -0.0201731 0)
(-0.560309 -0.0860038 0)
(-0.518238 -0.147021 0)
(-0.453484 -0.196222 0)
(-0.370701 -0.226569 0)
(-0.277246 -0.23231 0)
(-0.182743 -0.210634 0)
(-0.0979894 -0.163245 0)
(-0.0347679 -0.0974569 0)
(-0.00505673 -0.0272378 0)
(-0.00869475 0.0601867 0)
(-0.0477591 0.162816 0)
(-0.120733 0.238395 0)
(-0.211308 0.284496 0)
(-0.308636 0.30248 0)
(-0.405365 0.294934 0)
(-0.495106 0.264652 0)
(-0.572229 0.214373 0)
(-0.631809 0.146981 0)
(-0.669572 0.0660008 0)
(-0.682004 -0.0238569 0)
(-0.666659 -0.116268 0)
(-0.622643 -0.20317 0)
(-0.551255 -0.275086 0)
(-0.45669 -0.322083 0)
(-0.346601 -0.335446 0)
(-0.232 -0.309979 0)
(-0.12634 -0.246397 0)
(-0.045555 -0.153053 0)
(-0.00679355 -0.047077 0)
(-0.0101421 0.0872076 0)
(-0.0552145 0.227137 0)
(-0.138672 0.326173 0)
(-0.241346 0.384546 0)
(-0.350873 0.405792 0)
(-0.45934 0.394159 0)
(-0.560159 0.353631 0)
(-0.647664 0.287773 0)
(-0.71688 0.200094 0)
(-0.763311 0.0947209 0)
(-0.782931 -0.0228535 0)
(-0.772423 -0.145128 0)
(-0.729699 -0.26224 0)
(-0.654715 -0.362108 0)
(-0.550558 -0.431346 0)
(-0.424565 -0.457223 0)
(-0.288839 -0.430715 0)
(-0.159773 -0.350082 0)
(-0.0585149 -0.223864 0)
(-0.00893137 -0.0727516 0)
(-0.0114189 0.117943 0)
(-0.0617811 0.29977 0)
(-0.154398 0.424543 0)
(-0.267487 0.495903 0)
(-0.387356 0.520278 0)
(-0.505735 0.504115 0)
(-0.616091 0.452889 0)
(-0.712995 0.371075 0)
(-0.791688 0.262694 0)
(-0.847667 0.132198 0)
(-0.876502 -0.0145334 0)
(-0.873961 -0.169257 0)
(-0.836483 -0.32066 0)
(-0.76213 -0.454127 0)
(-0.65205 -0.552368 0)
(-0.512303 -0.59745 0)
(-0.355309 -0.574595 0)
(-0.200313 -0.477377 0)
(-0.0748464 -0.312932 0)
(-0.0117907 -0.105687 0)
(-0.0125465 0.151924 0)
(-0.0674909 0.379591 0)
(-0.167804 0.53187 0)
(-0.289212 0.616554 0)
(-0.416862 0.643745 0)
(-0.542371 0.622685 0)
(-0.659585 0.560687 0)
(-0.763673 0.463229 0)
(-0.850465 0.334709 0)
(-0.915802 0.179572 0)
(-0.955146 0.00357091 0)
(-0.963505 -0.184945 0)
(-0.935768 -0.37385 0)
(-0.867641 -0.546415 0)
(-0.757403 -0.681317 0)
(-0.60847 -0.754315 0)
(-0.432101 -0.74253 0)
(-0.24957 -0.631567 0)
(-0.0957789 -0.424217 0)
(-0.0157442 -0.147997 0)
(-0.0135926 0.188724 0)
(-0.0725349 0.465458 0)
(-0.179018 0.646238 0)
(-0.306168 0.743849 0)
(-0.43809 0.773017 0)
(-0.566606 0.746492 0)
(-0.686359 0.67383 0)
(-0.793583 0.561641 0)
(-0.885188 0.414583 0)
(-0.957877 0.236737 0)
(-1.00752 0.0331433 0)
(-1.02881 -0.188547 0)
(-1.01531 -0.41636 0)
(-0.960211 -0.632378 0)
(-0.858053 -0.811716 0)
(-0.707926 -0.923188 0)
(-0.517597 -0.933325 0)
(-0.308317 -0.815254 0)
(-0.122561 -0.562296 0)
(-0.021267 -0.202528 0)
(-0.0147508 0.22811 0)
(-0.0774977 0.556394 0)
(-0.188752 0.765483 0)
(-0.31854 0.874346 0)
(-0.450024 0.903617 0)
(-0.575685 0.870447 0)
(-0.691534 0.787121 0)
(-0.795455 0.661543 0)
(-0.886043 0.498547 0)
(-0.961516 0.301534 0)
(-1.01887 0.0742536 0)
(-1.05326 -0.177246 0)
(-1.05761 -0.442399 0)
(-1.02288 -0.703617 0)
(-0.939409 -0.933836 0)
(-0.800265 -1.0953 0)
(-0.606585 -1.14195 0)
(-0.375827 -1.02891 0)
(-0.156417 -0.731789 0)
(-0.0290157 -0.272948 0)
(-0.0164742 0.270373 0)
(-0.0837092 0.651947 0)
(-0.198742 0.887301 0)
(-0.327441 1.00364 0)
(-0.452223 1.02942 0)
(-0.566995 0.987324 0)
(-0.669938 0.892878 0)
(-0.761305 0.755448 0)
(-0.842048 0.579989 0)
(-0.912618 0.368989 0)
(-0.971993 0.124432 0)
(-1.0168 -0.15009 0)
(-1.04046 -0.446826 0)
(-1.03272 -0.750573 0)
(-0.980068 -1.03458 0)
(-0.86835 -1.25656 0)
(-0.688596 -1.35746 0)
(-0.448769 -1.26873 0)
(-0.198379 -0.936314 0)
(-0.0399388 -0.363897 0)
(-0.019713 0.316962 0)
(-0.0937532 0.75275 0)
(-0.21218 1.00929 0)
(-0.335042 1.12605 0)
(-0.44466 1.14221 0)
(-0.537755 1.08732 0)
(-0.615847 0.980574 0)
(-0.682413 0.832842 0)
(-0.741423 0.649109 0)
(-0.796192 0.430809 0)
(-0.848457 0.177889 0)
(-0.897412 -0.109121 0)
(-0.938483 -0.426554 0)
(-0.961938 -0.763904 0)
(-0.951921 -1.09829 0)
(-0.887246 -1.38707 0)
(-0.745987 -1.56076 0)
(-0.519481 -1.52353 0)
(-0.248799 -1.1766 0)
(-0.0553981 -0.481181 0)
(-0.0263262 0.371612 0)
(-0.112136 0.861144 0)
(-0.233822 1.12862 0)
(-0.34378 1.2338 0)
(-0.426218 1.23086 0)
(-0.48318 1.15751 0)
(-0.5212 1.03662 0)
(-0.547909 0.880238 0)
(-0.570791 0.6931 0)
(-0.596355 0.47548 0)
(-0.629537 0.225278 0)
(-0.672908 -0.0601913 0)
(-0.725356 -0.382078 0)
(-0.779981 -0.736576 0)
(-0.821467 -1.10872 0)
(-0.823942 -1.4619 0)
(-0.751931 -1.72318 0)
(-0.573329 -1.77099 0)
(-0.306061 -1.44708 0)
(-0.0771562 -0.631723 0)
(-0.0396969 0.442187 0)
(-0.145817 0.98139 0)
(-0.268639 1.24051 0)
(-0.352884 1.31512 0)
(-0.389861 1.27992 0)
(-0.391197 1.18119 0)
(-0.370521 1.04446 0)
(-0.34037 0.881853 0)
(-0.311775 0.697204 0)
(-0.294168 0.489419 0)
(-0.295419 0.254567 0)
(-0.321574 -0.0128212 0)
(-0.375848 -0.31852 0)
(-0.45637 -0.666286 0)
(-0.552274 -1.05249 0)
(-0.638088 -1.45418 0)
(-0.668444 -1.80679 0)
(-0.584602 -1.97383 0)
(-0.363257 -1.73039 0)
(-0.106611 -0.82265 0)
(-0.0650911 0.543753 0)
(-0.202876 1.11796 0)
(-0.315426 1.33385 0)
(-0.347792 1.35034 0)
(-0.310361 1.26731 0)
(-0.230338 1.13727 0)
(-0.130036 0.985355 0)
(-0.0266089 0.821461 0)
(0.0663964 0.647206 0)
(0.137923 0.459755 0)
(0.178443 0.253701 0)
(0.179437 0.021768 0)
(0.133719 -0.245065 0)
(0.0370264 -0.557092 0)
(-0.108013 -0.923108 0)
(-0.283669 -1.34028 0)
(-0.44432 -1.76794 0)
(-0.510067 -2.07776 0)
(-0.400491 -1.99041 0)
(-0.141364 -1.06018 0)
(-0.107279 0.704735 0)
(-0.282734 1.26695 0)
(-0.34457 1.37778 0)
(-0.272154 1.3021 0)
(-0.117276 1.15975 0)
(0.0733452 0.999792 0)
(0.270837 0.840494 0)
(0.456595 0.685897 0)
(0.617672 0.533698 0)
(0.744142 0.378921 0)
(0.827228 0.215215 0)
(0.858102 0.0348838 0)
(0.827414 -0.171966 0)
(0.725613 -0.418865 0)
(0.545318 -0.724023 0)
(0.289163 -1.10625 0)
(-0.0126703 -1.56327 0)
(-0.279624 -2.0109 0)
(-0.370647 -2.16227 0)
(-0.164933 -1.3479 0)
(-0.153134 0.967649 0)
(-0.33487 1.38466 0)
(-0.232127 1.29104 0)
(0.0359464 1.10068 0)
(0.354031 0.911075 0)
(0.669917 0.742951 0)
(0.960894 0.598542 0)
(1.21525 0.472983 0)
(1.42633 0.359416 0)
(1.58933 0.251148 0)
(1.69929 0.141896 0)
(1.74974 0.0251653 0)
(1.73196 -0.107048 0)
(1.63399 -0.266667 0)
(1.4403 -0.473569 0)
(1.13511 -0.75995 0)
(0.715201 -1.16514 0)
(0.220292 -1.68797 0)
(-0.173046 -2.12395 0)
(-0.117837 -1.64502 0)
(-0.045445 1.25345 0)
(-0.0684549 1.30064 0)
(0.409844 0.956806 0)
(0.950238 0.699977 0)
(1.41559 0.521507 0)
(1.80375 0.391925 0)
(2.12484 0.295722 0)
(2.38522 0.221616 0)
(2.5897 0.160877 0)
(2.74137 0.107197 0)
(2.84079 0.0559257 0)
(2.88563 0.00312981 0)
(2.8703 -0.0554266 0)
(2.7845 -0.12632 0)
(2.61064 -0.221959 0)
(2.32026 -0.368964 0)
(1.8692 -0.622671 0)
(1.20129 -1.06451 0)
(0.441924 -1.66297 0)
(0.211953 -1.67417 0)
(1.41863 0.697452 0)
(1.81169 0.617885 0)
(2.53031 0.392439 0)
(3.09666 0.24766 0)
(3.46553 0.161387 0)
(3.71856 0.107332 0)
(3.90279 0.0724468 0)
(4.03844 0.0490726 0)
(4.13638 0.0322564 0)
(4.20303 0.0189138 0)
(4.24146 0.00712824 0)
(4.25219 -0.00441046 0)
(4.23344 -0.0168058 0)
(4.18052 -0.0317456 0)
(4.08371 -0.0524375 0)
(3.92207 -0.086858 0)
(3.6468 -0.156554 0)
(3.12527 -0.312501 0)
(2.26301 -0.614437 0)
(1.64211 -0.768341 0)
)
;

boundaryField
{
    movingWall
    {
        type            fixedValue;
        value           uniform (5 0 0);
    }
    fixedWalls
    {
        type            noSlip;
    }
    frontAndBack
    {
        type            empty;
    }
}


// ************************************************************************* //
