/*--------------------------------*- C++ -*----------------------------------*\
  =========                 |
  \\      /  F ield         | OpenFOAM: The Open Source CFD Toolbox
   \\    /   O peration     | Website:  https://openfoam.org
    \\  /    A nd           | Version:  8
     \\/     M anipulation  |
\*---------------------------------------------------------------------------*/
FoamFile
{
    version     2.0;
    format      ascii;
    class       volScalarField;
    location    "0.3";
    object      p;
}
// * * * * * * * * * * * * * * * * * * * * * * * * * * * * * * * * * * * * * //

dimensions      [0 2 -2 0 0 0 0];

internalField   nonuniform List<scalar> 
400
(
-2.46139e-07
-0.0186866
-0.0409964
-0.057778
-0.0640391
-0.0576483
-0.0383826
-0.00729115
0.0336401
0.0816045
0.133028
0.183687
0.228993
0.264477
0.286475
0.292936
0.284269
0.264049
0.23943
0.220957
0.0185499
-0.000765993
-0.0181921
-0.0296024
-0.0328714
-0.0265495
-0.0103591
0.0150127
0.0481274
0.0868534
0.1284
0.169427
0.206292
0.235464
0.254082
0.260585
0.255349
0.240971
0.221546
0.202725
0.0421676
0.0155001
-0.00318519
-0.0134792
-0.0160884
-0.0103906
0.00368573
0.0255552
0.0541088
0.0876727
0.123964
0.16014
0.192999
0.219334
0.236434
0.242658
0.238034
0.224315
0.203052
0.176771
0.062302
0.0257899
0.0028417
-0.00873952
-0.0120852
-0.00732102
0.00535565
0.0253518
0.0517633
0.0832263
0.117769
0.152781
0.185141
0.211541
0.228965
0.235285
0.229969
0.214056
0.187178
0.150165
0.0729419
0.0264283
-0.00149998
-0.0151063
-0.0196136
-0.0157643
-0.00397107
0.0151776
0.0409649
0.072293
0.107424
0.143854
0.178365
0.207303
0.227047
0.234688
0.228927
0.210088
0.176192
0.127114
0.0694547
0.0133348
-0.0196081
-0.0353857
-0.0410611
-0.0378741
-0.026374
-0.00709207
0.0194719
0.0524946
0.090457
0.130907
0.17042
0.204798
0.229547
0.24064
0.235715
0.214224
0.172622
0.110241
0.0478855
-0.0173455
-0.055033
-0.0727809
-0.0793532
-0.0764111
-0.0645686
-0.0442266
-0.0155976
0.0208366
0.0638325
0.111019
0.158724
0.202073
0.235414
0.253201
0.251555
0.228677
0.179127
0.101788
0.00450684
-0.0693577
-0.111313
-0.130539
-0.137492
-0.134243
-0.121423
-0.099218
-0.0674424
-0.0261021
0.0239823
0.080654
0.140068
0.196615
0.243229
0.272357
0.277953
0.256256
0.199109
0.104684
-0.0644441
-0.146556
-0.192113
-0.211995
-0.218509
-0.214219
-0.199758
-0.175015
-0.13926
-0.0918213
-0.0328489
0.0359771
0.11086
0.185538
0.251356
0.298216
0.317024
0.30092
0.237524
0.123557
-0.16294
-0.253078
-0.301256
-0.320412
-0.325135
-0.318687
-0.301751
-0.273844
-0.233517
-0.179153
-0.109888
-0.0265192
0.0676184
0.165912
0.258131
0.331149
0.371756
0.368321
0.301795
0.165891
-0.295451
-0.393626
-0.442768
-0.458727
-0.459267
-0.448754
-0.428032
-0.396176
-0.350813
-0.289066
-0.208626
-0.108861
0.00798199
0.135551
0.262402
0.372161
0.446403
0.466505
0.403008
0.243627
-0.46765
-0.574055
-0.621012
-0.629193
-0.621258
-0.603319
-0.576524
-0.539411
-0.488432
-0.419089
-0.32714
-0.209883
-0.0676489
0.0944456
0.264641
0.423685
0.547161
0.606871
0.557599
0.375638
-0.688157
-0.80255
-0.840924
-0.83288
-0.808968
-0.777885
-0.741134
-0.696478
-0.638839
-0.561669
-0.458294
-0.323276
-0.154081
0.0467166
0.26862
0.49086
0.683209
0.805469
0.789819
0.591911
-0.972607
-1.09181
-1.10823
-1.06879
-1.01649
-0.963248
-0.910527
-0.854726
-0.788629
-0.703109
-0.588559
-0.436198
-0.239708
0.00237493
0.283072
0.582857
0.867744
1.0845
1.1354
0.94117
-1.35282
-1.46272
-1.429
-1.33199
-1.23224
-1.14401
-1.06724
-0.995584
-0.918654
-0.824001
-0.698583
-0.529801
-0.306815
-0.0226885
0.321828
0.712821
1.11767
1.47278
1.64601
1.50397
-1.89496
-1.94931
-1.80762
-1.61049
-1.43661
-1.29753
-1.18785
-1.09588
-1.00628
-0.902246
-0.766786
-0.58316
-0.335524
-0.0103025
0.400789
0.89525
1.45085
2.00299
2.39082
2.40876
-2.73572
-2.60292
-2.24369
-1.88417
-1.60268
-1.39615
-1.24684
-1.13297
-1.0315
-0.920053
-0.777185
-0.581861
-0.312951
0.0507487
0.52947
1.13906
1.88014
2.7049
3.45511
3.85676
-4.20734
-3.48863
-2.706
-2.10786
-1.68789
-1.40505
-1.2188
-1.08994
-0.984337
-0.873097
-0.730456
-0.531497
-0.250123
0.143212
0.683883
1.41454
2.37498
3.57006
4.95306
6.26849
-7.23877
-4.62805
-2.97388
-2.08633
-1.55549
-1.2351
-1.05002
-0.938955
-0.856168
-0.76815
-0.64731
-0.467362
-0.200121
0.189743
0.751748
1.56098
2.72241
4.38828
6.95951
10.6381
-12.8194
-5.7314
-2.59937
-1.52186
-1.03845
-0.799238
-0.699944
-0.667464
-0.652826
-0.624517
-0.558399
-0.432002
-0.220085
0.109465
0.606611
1.36279
2.55965
4.62941
8.94121
17.2187
)
;

boundaryField
{
    movingWall
    {
        type            zeroGradient;
    }
    fixedWalls
    {
        type            zeroGradient;
    }
    frontAndBack
    {
        type            empty;
    }
}


// ************************************************************************* //
