/*--------------------------------*- C++ -*----------------------------------*\
  =========                 |
  \\      /  F ield         | OpenFOAM: The Open Source CFD Toolbox
   \\    /   O peration     | Website:  https://openfoam.org
    \\  /    A nd           | Version:  8
     \\/     M anipulation  |
\*---------------------------------------------------------------------------*/
FoamFile
{
    version     2.0;
    format      ascii;
    class       surfaceScalarField;
    location    "0.3";
    object      phi;
}
// * * * * * * * * * * * * * * * * * * * * * * * * * * * * * * * * * * * * * //

dimensions      [0 3 -1 0 0 0 0];

internalField   nonuniform List<scalar> 
760
(
4.2141e-08
-4.21427e-08
-7.96539e-08
1.21793e-07
-3.74458e-07
2.94803e-07
-7.87573e-07
4.13117e-07
-1.25841e-06
4.7084e-07
-1.73218e-06
4.73773e-07
-2.16217e-06
4.29996e-07
-2.5096e-06
3.47432e-07
-2.7431e-06
2.33502e-07
-2.83919e-06
9.6089e-08
-2.78405e-06
-5.51447e-08
-2.57626e-06
-2.07792e-07
-2.22974e-06
-3.46516e-07
-1.77587e-06
-4.53875e-07
-1.26359e-06
-5.12287e-07
-7.56498e-07
-5.07092e-07
-3.25982e-07
-4.30519e-07
-3.99178e-08
-2.86066e-07
5.70448e-08
-9.69629e-08
5.70459e-08
-1.18027e-07
7.5881e-08
-5.95792e-07
5.99556e-07
-1.40759e-06
1.1066e-06
-2.45285e-06
1.45837e-06
-3.6104e-06
1.62839e-06
-4.76115e-06
1.62452e-06
-5.79778e-06
1.46663e-06
-6.62871e-06
1.17836e-06
-7.18011e-06
7.84906e-07
-7.39864e-06
3.14618e-07
-7.25554e-06
-1.98244e-07
-6.75185e-06
-7.11478e-07
-5.9234e-06
-1.17496e-06
-4.84361e-06
-1.53367e-06
-3.62197e-06
-1.73393e-06
-2.39599e-06
-1.73307e-06
-1.31491e-06
-1.51159e-06
-5.14589e-07
-1.08639e-06
-8.23979e-08
-5.29152e-07
-2.5352e-08
-3.08559e-07
3.84437e-07
-1.16956e-06
1.46056e-06
-2.47302e-06
2.41006e-06
-4.06864e-06
3.05399e-06
-5.79138e-06
3.35114e-06
-7.48024e-06
3.31338e-06
-8.98885e-06
2.97524e-06
-1.01913e-05
2.38077e-06
-1.09859e-05
1.57955e-06
-1.12999e-05
6.28606e-07
-1.10946e-05
-4.03541e-07
-1.03722e-05
-1.43393e-06
-9.18142e-06
-2.3657e-06
-7.62136e-06
-3.09373e-06
-5.83892e-06
-3.51637e-06
-4.0189e-06
-3.55309e-06
-2.36369e-06
-3.16679e-06
-1.06315e-06
-2.38693e-06
-2.57261e-07
-1.33504e-06
-2.82613e-07
-4.82298e-07
8.66733e-07
-1.71317e-06
2.69143e-06
-3.48587e-06
4.18276e-06
-5.58957e-06
5.15769e-06
-7.81689e-06
5.57846e-06
-9.97401e-06
5.4705e-06
-1.18876e-05
4.88879e-06
-1.3409e-05
3.90221e-06
-1.44183e-05
2.58885e-06
-1.48285e-05
1.03879e-06
-1.45918e-05
-6.40262e-07
-1.37069e-05
-2.31878e-06
-1.22266e-05
-3.846e-06
-1.02626e-05
-5.05776e-06
-7.98543e-06
-5.79351e-06
-5.61597e-06
-5.92255e-06
-3.40512e-06
-5.37764e-06
-1.60277e-06
-4.18928e-06
-4.20352e-07
-2.51747e-06
-7.02963e-07
-6.38474e-07
1.5052e-06
-2.21704e-06
4.27e-06
-4.43463e-06
6.40035e-06
-7.01596e-06
7.73901e-06
-9.71109e-06
8.27359e-06
-1.22978e-05
8.05724e-06
-1.45829e-05
7.17389e-06
-1.64027e-05
5.72199e-06
-1.76245e-05
3.81061e-06
-1.81497e-05
1.56406e-06
-1.792e-05
-8.69986e-07
-1.69248e-05
-3.31399e-06
-1.52112e-05
-5.55967e-06
-1.28923e-05
-7.37661e-06
-1.01526e-05
-8.53326e-06
-7.24342e-06
-8.83168e-06
-4.46699e-06
-8.15407e-06
-2.14485e-06
-6.51143e-06
-5.76647e-07
-4.08567e-06
-1.27961e-06
-7.81906e-07
2.2871e-06
-2.68705e-06
6.17515e-06
-5.32536e-06
9.03866e-06
-8.35726e-06
1.07709e-05
-1.14914e-05
1.14077e-05
-1.44807e-05
1.10466e-05
-1.71178e-05
9.81096e-06
-1.92296e-05
7.83382e-06
-2.06753e-05
5.25625e-06
-2.13463e-05
2.23507e-06
-2.1171e-05
-1.04525e-06
-2.01232e-05
-4.36181e-06
-1.82341e-05
-7.44883e-06
-1.56065e-05
-1.00042e-05
-1.24278e-05
-1.17119e-05
-8.97502e-06
-1.22845e-05
-5.60495e-06
-1.15241e-05
-2.72451e-06
-9.39188e-06
-7.40802e-07
-6.06937e-06
-2.02041e-06
-9.16954e-07
3.20405e-06
-3.13064e-06
8.38883e-06
-6.16512e-06
1.20732e-05
-9.61788e-06
1.42237e-05
-1.31586e-05
1.49484e-05
-1.65204e-05
1.44084e-05
-1.94876e-05
1.27781e-05
-2.18843e-05
1.02306e-05
-2.35667e-05
6.93857e-06
-2.44184e-05
3.08681e-06
-2.43532e-05
-1.11043e-06
-2.33227e-05
-5.39237e-06
-2.13311e-05
-9.44037e-06
-1.84568e-05
-1.28785e-05
-1.48754e-05
-1.52933e-05
-1.08791e-05
-1.62808e-05
-6.87967e-06
-1.55236e-05
-3.38305e-06
-1.28885e-05
-9.29241e-07
-8.52319e-06
-2.94965e-06
-1.04697e-06
4.25102e-06
-3.5537e-06
1.08956e-05
-6.95703e-06
1.54765e-05
-1.07918e-05
1.80585e-05
-1.46927e-05
1.88493e-05
-1.83794e-05
1.80951e-05
-2.16367e-05
1.60354e-05
-2.42948e-05
1.28888e-05
-2.62144e-05
8.85809e-06
-2.72764e-05
4.14886e-06
-2.73807e-05
-1.00614e-06
-2.64519e-05
-6.32117e-06
-2.44564e-05
-1.14359e-05
-2.143e-05
-1.59048e-05
-1.75155e-05
-1.92078e-05
-1.30009e-05
-2.07954e-05
-8.34411e-06
-2.01804e-05
-4.16136e-06
-1.70712e-05
-1.15876e-06
-1.15258e-05
-4.1084e-06
-1.17518e-06
5.4262e-06
-3.9617e-06
1.36821e-05
-7.70082e-06
1.92156e-05
-1.18626e-05
2.22203e-05
-1.60514e-05
2.3038e-05
-1.99834e-05
2.20272e-05
-2.34563e-05
1.95083e-05
-2.63188e-05
1.57513e-05
-2.84477e-05
1.0987e-05
-2.97306e-05
5.43173e-06
-3.00584e-05
-6.78325e-07
-2.93279e-05
-7.05169e-06
-2.74577e-05
-1.33061e-05
-2.44215e-05
-1.8941e-05
-2.02996e-05
-2.33297e-05
-1.53431e-05
-2.57519e-05
-1.00325e-05
-2.5491e-05
-5.09626e-06
-2.20075e-05
-1.44658e-06
-1.51755e-05
-5.55498e-06
-1.30709e-06
6.73329e-06
-4.36434e-06
1.67393e-05
-8.39785e-06
2.32491e-05
-1.28069e-05
2.66293e-05
-1.71726e-05
2.74037e-05
-2.12221e-05
2.60767e-05
-2.47828e-05
2.3069e-05
-2.774e-05
1.87085e-05
-3.00029e-05
1.32499e-05
-3.14805e-05
6.9093e-06
-3.20659e-05
-9.28786e-08
-3.1633e-05
-7.48455e-06
-3.00479e-05
-1.48913e-05
-2.72026e-05
-2.17863e-05
-2.3079e-05
-2.74533e-05
-1.7842e-05
-3.09889e-05
-1.19471e-05
-3.13858e-05
-6.21748e-06
-2.77371e-05
-1.81154e-06
-1.95814e-05
-7.36651e-06
-1.4547e-06
8.188e-06
-4.78337e-06
2.0068e-05
-9.0588e-06
2.75245e-05
-1.35997e-05
3.11703e-05
-1.79759e-05
3.17799e-05
-2.19474e-05
3.00481e-05
-2.53954e-05
2.6517e-05
-2.82646e-05
2.15777e-05
-3.05187e-05
1.5504e-05
-3.21078e-05
8.49833e-06
-3.29453e-05
7.44648e-07
-3.28957e-05
-7.53415e-06
-3.17763e-05
-1.60107e-05
-2.93848e-05
-2.41778e-05
-2.55663e-05
-3.12718e-05
-2.03339e-05
-3.62213e-05
-1.40388e-05
-3.76809e-05
-7.54293e-06
-3.4233e-05
-2.27606e-06
-2.48483e-05
-9.64257e-06
-1.64345e-06
9.83145e-06
-5.26329e-06
2.36878e-05
-9.71127e-06
3.19725e-05
-1.42155e-05
3.56745e-05
-1.83583e-05
3.59227e-05
-2.19667e-05
3.36565e-05
-2.50088e-05
2.95591e-05
-2.75171e-05
2.4086e-05
-2.95344e-05
1.75213e-05
-3.10756e-05
1.00395e-05
-3.20983e-05
1.7673e-06
-3.24803e-05
-7.15212e-06
-3.20077e-05
-1.64833e-05
-3.03847e-05
-2.58008e-05
-2.72901e-05
-3.43664e-05
-2.25106e-05
-4.10008e-05
-1.61757e-05
-4.40158e-05
-9.06905e-06
-4.13397e-05
-2.86929e-06
-3.1048e-05
-1.25119e-05
-1.92335e-06
1.17548e-05
-5.88324e-06
2.76477e-05
-1.03999e-05
3.64892e-05
-1.46135e-05
3.98881e-05
-1.81692e-05
3.94784e-05
-2.10151e-05
3.65024e-05
-2.32496e-05
3.17936e-05
-2.50244e-05
2.58609e-05
-2.64854e-05
1.89823e-05
-2.77339e-05
1.12881e-05
-2.87966e-05
2.83e-06
-2.95953e-05
-6.35347e-06
-2.99176e-05
-1.6161e-05
-2.93996e-05
-2.63187e-05
-2.75488e-05
-3.62172e-05
-2.38599e-05
-4.46898e-05
-1.80929e-05
-4.97827e-05
-1.07499e-05
-4.86827e-05
-3.6309e-06
-3.81671e-05
-1.61428e-05
-2.38645e-06
1.41413e-05
-6.76285e-06
3.20241e-05
-1.11599e-05
4.08863e-05
-1.46818e-05
4.34099e-05
-1.71388e-05
4.19353e-05
-1.86834e-05
3.8047e-05
-1.95965e-05
3.27067e-05
-2.01764e-05
2.64408e-05
-2.0686e-05
1.94919e-05
-2.13244e-05
1.19265e-05
-2.22045e-05
3.71003e-06
-2.33223e-05
-5.23563e-06
-2.45141e-05
-1.49692e-05
-2.54037e-05
-2.54291e-05
-2.53686e-05
-3.62523e-05
-2.35898e-05
-4.64685e-05
-1.93105e-05
-5.4062e-05
-1.24506e-05
-5.55427e-05
-4.61174e-06
-4.60059e-05
-2.07545e-05
-3.1875e-06
1.73288e-05
-8.03411e-06
3.68707e-05
-1.19126e-05
4.47648e-05
-1.40806e-05
4.5578e-05
-1.47061e-05
4.25608e-05
-1.42597e-05
3.76006e-05
-1.32524e-05
3.16994e-05
-1.21374e-05
2.53259e-05
-1.12838e-05
1.86382e-05
-1.09749e-05
1.16176e-05
-1.14065e-05
4.14169e-06
-1.26673e-05
-3.97487e-06
-1.46914e-05
-1.29452e-05
-1.71767e-05
-2.29438e-05
-1.94779e-05
-3.39511e-05
-2.05342e-05
-4.54122e-05
-1.89947e-05
-5.56014e-05
-1.38368e-05
-6.07005e-05
-5.8512e-06
-5.39916e-05
-2.66057e-05
-4.53457e-06
2.18633e-05
-9.68142e-06
4.20176e-05
-1.21562e-05
4.72395e-05
-1.18717e-05
4.52934e-05
-9.66423e-06
4.03534e-05
-6.43329e-06
3.43696e-05
-2.92323e-06
2.81894e-05
3.0183e-07
2.21008e-05
2.82361e-06
1.61165e-05
4.32576e-06
1.01154e-05
4.56626e-06
3.90119e-06
3.37409e-06
-2.78271e-06
6.83425e-07
-1.02545e-05
-3.37599e-06
-1.88844e-05
-8.31152e-06
-2.90156e-05
-1.30374e-05
-4.06864e-05
-1.57217e-05
-5.29171e-05
-1.41162e-05
-6.23061e-05
-7.26382e-06
-6.08439e-05
-3.38695e-05
-6.52487e-06
2.83882e-05
-1.0957e-05
4.64497e-05
-1.01583e-05
4.64409e-05
-5.73532e-06
4.08704e-05
4.70939e-07
3.41471e-05
7.15659e-06
2.7684e-05
1.3476e-05
2.18699e-05
1.88963e-05
1.66805e-05
2.30704e-05
1.19424e-05
2.57451e-05
7.4407e-06
2.67041e-05
2.94223e-06
2.57399e-05
-1.81858e-06
2.26606e-05
-7.17519e-06
1.73513e-05
-1.35751e-05
9.94592e-06
-2.16102e-05
1.17651e-06
-3.19169e-05
-7.10042e-06
-4.46402e-05
-1.15144e-05
-5.78921e-05
-8.30623e-06
-6.40521e-05
-4.21758e-05
-8.44508e-06
3.68333e-05
-8.59678e-06
4.66014e-05
-1.08156e-06
3.89256e-05
9.45167e-06
3.03372e-05
2.03523e-05
2.32465e-05
3.03897e-05
1.76466e-05
3.90076e-05
1.3252e-05
4.59675e-05
9.72064e-06
5.11626e-05
6.74726e-06
5.4515e-05
4.08827e-06
5.59172e-05
1.54002e-06
5.51969e-05
-1.09824e-06
5.20919e-05
-4.07015e-06
4.62509e-05
-7.73413e-06
3.73115e-05
-1.26708e-05
2.51957e-05
-1.98011e-05
1.08716e-05
-3.03161e-05
-2.24095e-06
-4.47795e-05
-7.22101e-06
-5.90721e-05
-4.93968e-05
-4.49346e-06
4.13267e-05
8.69423e-06
3.34137e-05
2.67637e-05
2.08561e-05
4.33972e-05
1.37037e-05
5.72958e-05
9.34786e-06
6.8474e-05
6.46846e-06
7.72187e-05
4.50728e-06
8.383e-05
3.10929e-06
8.8539e-05
2.03833e-06
9.14824e-05
1.14486e-06
9.26936e-05
3.28794e-07
9.2092e-05
-4.9659e-07
8.94433e-05
-1.42149e-06
8.4305e-05
-2.59587e-06
7.59347e-05
-4.30048e-06
6.32601e-05
-7.12648e-06
4.526e-05
-1.2316e-05
2.26062e-05
-2.21256e-05
2.12899e-06
-3.85949e-05
-4.72678e-05
4.13267e-05
7.47405e-05
9.55966e-05
0.0001093
0.000118648
0.000125117
0.000129624
0.000132733
0.000134772
0.000135916
0.000136245
0.000135749
0.000134327
0.000131731
0.000127431
0.000120304
0.000107988
8.58627e-05
4.72678e-05
)
;

boundaryField
{
    movingWall
    {
        type            calculated;
        value           uniform 0;
    }
    fixedWalls
    {
        type            calculated;
        value           uniform 0;
    }
    frontAndBack
    {
        type            empty;
        value           nonuniform List<scalar> 0();
    }
}


// ************************************************************************* //
