/*--------------------------------*- C++ -*----------------------------------*\
  =========                 |
  \\      /  F ield         | OpenFOAM: The Open Source CFD Toolbox
   \\    /   O peration     | Website:  https://openfoam.org
    \\  /    A nd           | Version:  8
     \\/     M anipulation  |
\*---------------------------------------------------------------------------*/
FoamFile
{
    version     2.0;
    format      ascii;
    class       volScalarField;
    location    "0.4";
    object      p;
}
// * * * * * * * * * * * * * * * * * * * * * * * * * * * * * * * * * * * * * //

dimensions      [0 2 -2 0 0 0 0];

internalField   nonuniform List<scalar> 
400
(
4.88794e-06
-0.0163363
-0.0359236
-0.0506829
-0.0561582
-0.0504363
-0.0333321
-0.00582419
0.0302628
0.0723941
0.117401
0.161602
0.201053
0.231945
0.251167
0.25697
0.249675
0.232296
0.210942
0.194752
0.0162279
-0.000653526
-0.0159566
-0.0260017
-0.0288496
-0.0231937
-0.00880104
0.0136751
0.0429028
0.0769494
0.113336
0.149149
0.181258
0.206661
0.222932
0.228751
0.224417
0.212113
0.195281
0.178767
0.0369639
0.0136497
-0.00277765
-0.0118633
-0.0141326
-0.00900262
0.00357386
0.0230261
0.0483027
0.0778632
0.109666
0.14123
0.16981
0.192694
0.207603
0.213158
0.209367
0.197673
0.179273
0.156242
0.0548052
0.0228516
0.00264641
-0.00759177
-0.0104873
-0.00611072
0.00533858
0.0232629
0.0467663
0.0745571
0.10485
0.135358
0.16342
0.186256
0.201353
0.206939
0.202556
0.189018
0.165806
0.133453
0.0645878
0.0238157
-0.000814318
-0.0128399
-0.0166941
-0.0129908
-0.00213844
0.0152375
0.0383687
0.0661613
0.097008
0.128705
0.158514
0.183384
0.200328
0.206946
0.20215
0.186135
0.15694
0.114188
0.0623604
0.0130536
-0.016049
-0.0299629
-0.034719
-0.031378
-0.0204991
-0.00270197
0.0213852
0.05086
0.0842658
0.119423
0.153415
0.182757
0.203766
0.213155
0.208979
0.190706
0.154982
0.100862
0.0447433
-0.0127488
-0.0461012
-0.0616799
-0.0670092
-0.0635405
-0.0519322
-0.0327476
-0.00642851
0.0263554
0.0643286
0.105341
0.146251
0.183022
0.211049
0.225844
0.224266
0.204763
0.162336
0.095554
0.00850331
-0.0568602
-0.0940506
-0.110788
-0.116111
-0.111864
-0.098774
-0.0772868
-0.0475775
-0.00998712
0.0344924
0.0838278
0.134694
0.182439
0.221328
0.245295
0.249503
0.230844
0.182024
0.100898
-0.0497111
-0.122726
-0.163161
-0.18023
-0.184662
-0.178778
-0.163373
-0.138714
-0.1046
-0.0608875
-0.00810232
0.0520286
0.116148
0.179029
0.233659
0.271968
0.286753
0.272472
0.218355
0.120926
-0.133562
-0.214155
-0.256939
-0.272988
-0.275136
-0.266378
-0.247625
-0.21891
-0.17951
-0.128592
-0.0659461
0.00731124
0.0880903
0.170802
0.24713
0.306617
0.338862
0.334609
0.277685
0.162016
-0.247318
-0.335597
-0.379206
-0.391888
-0.389421
-0.375836
-0.352256
-0.318422
-0.272921
-0.213963
-0.140261
-0.0518977
0.0487855
0.156281
0.261217
0.350537
0.409773
0.424238
0.369402
0.234189
-0.396521
-0.492695
-0.534237
-0.539323
-0.528229
-0.506587
-0.475859
-0.4354
-0.382885
-0.315257
-0.229742
-0.124858
-0.0015528
0.135495
0.276517
0.406082
0.505006
0.551128
0.507318
0.353125
-0.589575
-0.693342
-0.726979
-0.716812
-0.69027
-0.655314
-0.613774
-0.564408
-0.503649
-0.426792
-0.32913
-0.207044
-0.0592934
0.111319
0.295843
0.477468
0.632335
0.728835
0.711697
0.543587
-0.841401
-0.94961
-0.963226
-0.924198
-0.871087
-0.814721
-0.756949
-0.695393
-0.624698
-0.538019
-0.428244
-0.289053
-0.116196
0.0906773
0.325261
0.571502
0.802348
0.975776
1.01229
0.845775
-1.1816
-1.28096
-1.24914
-1.15788
-1.06123
-0.972087
-0.890987
-0.813213
-0.730673
-0.633702
-0.51229
-0.356927
-0.159619
0.0844512
0.373954
0.697148
1.02778
1.31534
1.45206
1.32651
-1.67045
-1.71842
-1.58934
-1.40793
-1.24399
-1.10808
-0.996078
-0.898532
-0.803055
-0.696203
-0.564564
-0.395065
-0.175427
0.104794
0.45182
0.863207
1.32092
1.77339
2.08878
2.09373
-2.43012
-2.3077
-1.98377
-1.65676
-1.39572
-1.19852
-1.0501
-0.932031
-0.825134
-0.711086
-0.572581
-0.392788
-0.154818
0.158412
0.563398
1.07324
1.68886
2.37233
2.99367
3.31915
-3.75468
-3.10578
-2.4039
-1.86353
-1.47815
-1.21226
-1.03045
-0.89876
-0.788162
-0.674593
-0.536951
-0.354998
-0.107492
0.22991
0.686848
1.29952
2.10197
3.10058
4.26073
5.36407
-6.46109
-4.13209
-2.65518
-1.8557
-1.3706
-1.07105
-0.890261
-0.774458
-0.684394
-0.591957
-0.474466
-0.310531
-0.0771275
0.254984
0.727604
1.40476
2.37563
3.77242
5.95078
9.09496
-11.3814
-5.12847
-2.34724
-1.37343
-0.927781
-0.699981
-0.595132
-0.54863
-0.518551
-0.478674
-0.409446
-0.292991
-0.10915
0.168279
0.581228
1.20768
2.20165
3.93566
7.61847
14.7806
)
;

boundaryField
{
    movingWall
    {
        type            zeroGradient;
    }
    fixedWalls
    {
        type            zeroGradient;
    }
    frontAndBack
    {
        type            empty;
    }
}


// ************************************************************************* //
