/*--------------------------------*- C++ -*----------------------------------*\
  =========                 |
  \\      /  F ield         | OpenFOAM: The Open Source CFD Toolbox
   \\    /   O peration     | Website:  https://openfoam.org
    \\  /    A nd           | Version:  8
     \\/     M anipulation  |
\*---------------------------------------------------------------------------*/
FoamFile
{
    version     2.0;
    format      ascii;
    class       surfaceScalarField;
    location    "0.4";
    object      phi;
}
// * * * * * * * * * * * * * * * * * * * * * * * * * * * * * * * * * * * * * //

dimensions      [0 3 -1 0 0 0 0];

internalField   nonuniform List<scalar> 
760
(
3.73043e-08
-3.73453e-08
-6.85981e-08
1.05902e-07
-3.26613e-07
2.58014e-07
-6.89142e-07
3.62528e-07
-1.10274e-06
4.13596e-07
-1.51869e-06
4.15957e-07
-1.89544e-06
3.76742e-07
-2.19868e-06
3.03249e-07
-2.40116e-06
2.02471e-07
-2.48291e-06
8.17581e-08
-2.43272e-06
-5.01929e-08
-2.25013e-06
-1.8259e-07
-1.94774e-06
-3.02392e-07
-1.55281e-06
-3.94933e-07
-1.10737e-06
-4.45439e-07
-6.65926e-07
-4.41444e-07
-2.89896e-07
-3.76031e-07
-3.83545e-08
-2.51543e-07
4.87042e-08
-8.70612e-08
4.87029e-08
-1.02103e-07
6.47579e-08
-5.18771e-07
5.2257e-07
-1.22912e-06
9.68361e-07
-2.14547e-06
1.27888e-06
-3.16099e-06
1.42912e-06
-4.17012e-06
1.42508e-06
-5.07772e-06
1.28434e-06
-5.8031e-06
1.02863e-06
-6.28202e-06
6.81394e-07
-6.46895e-06
2.68685e-07
-6.34027e-06
-1.78866e-07
-5.89833e-06
-6.24537e-07
-5.17517e-06
-1.02555e-06
-4.23471e-06
-1.3354e-06
-3.1713e-06
-1.50884e-06
-2.1032e-06
-1.50955e-06
-1.15908e-06
-1.32015e-06
-4.57101e-07
-9.53524e-07
-7.49635e-08
-4.69197e-07
-2.62626e-08
-2.68032e-07
3.32788e-07
-1.01936e-06
1.27389e-06
-2.15986e-06
2.10887e-06
-3.55825e-06
2.67727e-06
-5.06892e-06
2.93979e-06
-6.54918e-06
2.90533e-06
-7.86941e-06
2.60457e-06
-8.91877e-06
2.07799e-06
-9.60889e-06
1.37152e-06
-9.87749e-06
5.37283e-07
-9.69279e-06
-3.63569e-07
-9.05852e-06
-1.2588e-06
-8.01853e-06
-2.06554e-06
-6.65913e-06
-2.69481e-06
-5.10723e-06
-3.06074e-06
-3.52186e-06
-3.09491e-06
-2.07743e-06
-2.76458e-06
-9.38616e-07
-2.09234e-06
-2.28995e-07
-1.17882e-06
-2.55259e-07
-4.19316e-07
7.52103e-07
-1.49399e-06
2.34857e-06
-3.04571e-06
3.66059e-06
-4.88985e-06
4.52141e-06
-6.84308e-06
4.89302e-06
-8.73341e-06
4.79566e-06
-1.04072e-05
4.27838e-06
-1.17338e-05
3.40457e-06
-1.26088e-05
2.24651e-06
-1.29581e-05
8.86533e-07
-1.27424e-05
-5.79239e-07
-1.19633e-05
-2.03787e-06
-1.06687e-05
-3.36017e-06
-8.95645e-06
-4.40704e-06
-6.97425e-06
-5.04294e-06
-4.912e-06
-5.15717e-06
-2.98541e-06
-4.69118e-06
-1.41038e-06
-3.66736e-06
-3.72199e-07
-2.217e-06
-6.27457e-07
-5.55638e-07
1.30774e-06
-1.93542e-06
3.72835e-06
-3.8786e-06
5.60376e-06
-6.14331e-06
6.78612e-06
-8.50797e-06
7.25768e-06
-1.07749e-05
7.06256e-06
-1.27725e-05
6.27597e-06
-1.43566e-05
4.98875e-06
-1.54123e-05
3.30213e-06
-1.58557e-05
1.32999e-06
-1.56394e-05
-7.95553e-07
-1.47579e-05
-2.91934e-06
-1.32554e-05
-4.86268e-06
-1.12322e-05
-6.43027e-06
-8.84816e-06
-7.42698e-06
-6.31951e-06
-7.68582e-06
-3.90507e-06
-7.10562e-06
-1.88124e-06
-5.69119e-06
-5.08695e-07
-3.58955e-06
-1.13615e-06
-6.81712e-07
1.98945e-06
-2.3502e-06
5.39683e-06
-4.66617e-06
7.91973e-06
-7.33004e-06
9.44999e-06
-1.00824e-05
1.00101e-05
-1.27027e-05
9.68289e-06
-1.50062e-05
8.57946e-06
-1.68405e-05
6.82307e-06
-1.80837e-05
4.54527e-06
-1.86442e-05
1.89049e-06
-1.84643e-05
-9.75425e-07
-1.75266e-05
-3.85708e-06
-1.58632e-05
-6.5261e-06
-1.3567e-05
-8.72641e-06
-1.08017e-05
-1.01923e-05
-7.80516e-06
-1.06823e-05
-4.8821e-06
-1.00287e-05
-2.38018e-06
-8.19311e-06
-6.50752e-07
-5.31898e-06
-1.7869e-06
-8.01928e-07
2.79138e-06
-2.7464e-06
7.3413e-06
-5.41716e-06
1.05905e-05
-8.45717e-06
1.249e-05
-1.15709e-05
1.31238e-05
-1.45188e-05
1.26308e-05
-1.71083e-05
1.11689e-05
-1.91843e-05
8.89914e-06
-2.06228e-05
5.98375e-06
-2.13266e-05
2.59428e-06
-2.12267e-05
-1.07531e-06
-2.02885e-05
-4.79534e-06
-1.85231e-05
-8.29143e-06
-1.60046e-05
-1.12449e-05
-1.28882e-05
-1.33088e-05
-9.42528e-06
-1.41452e-05
-5.96639e-06
-1.34876e-05
-2.94126e-06
-1.12182e-05
-8.12011e-07
-7.44822e-06
-2.59891e-06
-9.19817e-07
3.7112e-06
-3.13077e-06
9.55225e-06
-6.13673e-06
1.35965e-05
-9.52245e-06
1.58757e-05
-1.2959e-05
1.65604e-05
-1.61937e-05
1.58654e-05
-1.90335e-05
1.40087e-05
-2.13289e-05
1.11945e-05
-2.29602e-05
7.61508e-06
-2.38292e-05
3.46325e-06
-2.38563e-05
-1.04816e-06
-2.29858e-05
-5.66587e-06
-2.11986e-05
-1.00786e-05
-1.85352e-05
-1.39083e-05
-1.5125e-05
-1.6719e-05
-1.12173e-05
-1.80529e-05
-7.20151e-06
-1.75034e-05
-3.59806e-06
-1.48217e-05
-1.00632e-06
-1.004e-05
-3.60523e-06
-1.03877e-06
4.74997e-06
-3.50949e-06
1.2023e-05
-6.82663e-06
1.69136e-05
-1.05136e-05
1.95627e-05
-1.42119e-05
2.02587e-05
-1.76644e-05
1.9318e-05
-2.0689e-05
1.70333e-05
-2.31527e-05
1.36582e-05
-2.49508e-05
9.4132e-06
-2.59918e-05
4.50423e-06
-2.61899e-05
-8.50063e-07
-2.54668e-05
-6.38893e-06
-2.37649e-05
-1.17805e-05
-2.1074e-05
-1.65992e-05
-1.74737e-05
-2.03193e-05
-1.31847e-05
-2.23419e-05
-8.61603e-06
-2.20721e-05
-4.38092e-06
-1.90568e-05
-1.24783e-06
-1.31731e-05
-4.85306e-06
-1.16411e-06
5.91408e-06
-3.89199e-06
1.47508e-05
-7.4889e-06
2.05105e-05
-1.14104e-05
2.34842e-05
-1.52747e-05
2.4123e-05
-1.88334e-05
2.28766e-05
-2.19308e-05
2.01307e-05
-2.44669e-05
1.61943e-05
-2.63665e-05
1.13128e-05
-2.75573e-05
5.69504e-06
-2.79562e-05
-4.51157e-07
-2.74658e-05
-6.87928e-06
-2.59845e-05
-1.32619e-05
-2.34346e-05
-1.91491e-05
-1.9815e-05
-2.39388e-05
-1.52777e-05
-2.68793e-05
-1.02135e-05
-2.71362e-05
-5.31479e-06
-2.39555e-05
-1.55205e-06
-1.69358e-05
-6.40511e-06
-1.30667e-06
7.22075e-06
-4.29741e-06
1.77416e-05
-8.13173e-06
2.43448e-05
-1.21879e-05
2.75404e-05
-1.6072e-05
2.80071e-05
-1.95645e-05
2.63691e-05
-2.2559e-05
2.31252e-05
-2.50093e-05
1.86447e-05
-2.68891e-05
1.31926e-05
-2.81623e-05
6.96817e-06
-2.87627e-05
1.49293e-07
-2.8584e-05
-7.05803e-06
-2.74815e-05
-1.43643e-05
-2.52972e-05
-2.13334e-05
-2.19163e-05
-2.73198e-05
-1.73667e-05
-3.14289e-05
-1.19573e-05
-3.25456e-05
-6.41614e-06
-2.94967e-05
-1.93775e-06
-2.14142e-05
-8.34286e-06
-1.48871e-06
8.70946e-06
-4.76326e-06
2.10161e-05
-8.77467e-06
2.83562e-05
-1.2815e-05
3.15808e-05
-1.65007e-05
3.16928e-05
-1.96738e-05
2.95422e-05
-2.23079e-05
2.57592e-05
-2.44366e-05
2.07735e-05
-2.61046e-05
1.48606e-05
-2.73318e-05
8.19539e-06
-2.80884e-05
9.05919e-07
-2.82761e-05
-6.87036e-06
-2.77194e-05
-1.4921e-05
-2.61771e-05
-2.28757e-05
-2.33923e-05
-3.01046e-05
-1.92052e-05
-3.5616e-05
-1.37461e-05
-3.80047e-05
-7.68615e-06
-3.55566e-05
-2.42997e-06
-2.66704e-05
-1.07728e-05
-1.75357e-06
1.0463e-05
-5.35483e-06
2.46174e-05
-9.44659e-06
3.2448e-05
-1.32388e-05
3.5373e-05
-1.64058e-05
3.48598e-05
-1.89022e-05
3.20387e-05
-2.0822e-05
2.7679e-05
-2.23077e-05
2.22592e-05
-2.34955e-05
1.60483e-05
-2.44799e-05
9.17982e-06
-2.52873e-05
1.71336e-06
-2.58513e-05
-6.30634e-06
-2.59903e-05
-1.47821e-05
-2.53966e-05
-2.34694e-05
-2.36615e-05
-3.18397e-05
-2.03777e-05
-3.88997e-05
-1.53725e-05
-4.301e-05
-9.09508e-06
-4.1834e-05
-3.06403e-06
-3.27014e-05
-1.38369e-05
-2.18047e-06
1.26435e-05
-6.16838e-06
2.86053e-05
-1.0159e-05
3.64386e-05
-1.33313e-05
3.85453e-05
-1.55134e-05
3.70419e-05
-1.685e-05
3.33753e-05
-1.76031e-05
2.8432e-05
-1.80485e-05
2.27045e-05
-1.84256e-05
1.64255e-05
-1.8912e-05
9.66627e-06
-1.96041e-05
2.4054e-06
-2.04918e-05
-5.41862e-06
-2.14246e-05
-1.38493e-05
-2.20717e-05
-2.28223e-05
-2.19007e-05
-3.20107e-05
-2.02298e-05
-4.05706e-05
-1.6452e-05
-4.67878e-05
-1.05452e-05
-4.77409e-05
-3.88788e-06
-3.93587e-05
-1.77247e-05
-2.90142e-06
1.55449e-05
-7.30272e-06
3.30066e-05
-1.081e-05
3.99458e-05
-1.27498e-05
4.0485e-05
-1.32815e-05
3.75736e-05
-1.28427e-05
3.29365e-05
-1.19055e-05
2.74948e-05
-1.08836e-05
2.16827e-05
-1.01082e-05
1.565e-05
-9.82648e-06
9.38455e-06
-1.02012e-05
2.78008e-06
-1.12946e-05
-4.32522e-06
-1.30299e-05
-1.2114e-05
-1.51247e-05
-2.07274e-05
-1.70081e-05
-3.01273e-05
-1.7773e-05
-3.98058e-05
-1.62985e-05
-4.82623e-05
-1.1778e-05
-5.22613e-05
-4.94611e-06
-4.61906e-05
-2.26708e-05
-4.08923e-06
1.96342e-05
-8.71192e-06
3.76293e-05
-1.09095e-05
4.21434e-05
-1.06152e-05
4.01908e-05
-8.59993e-06
3.55583e-05
-5.68983e-06
3.00264e-05
-2.564e-06
2.4369e-05
2.70037e-07
1.88487e-05
2.44394e-06
1.34761e-05
3.68767e-06
8.14081e-06
3.80355e-06
2.6642e-06
2.66278e-06
-3.18444e-06
2.3497e-07
-9.68616e-06
-3.33448e-06
-1.71579e-05
-7.58575e-06
-2.5876e-05
-1.15616e-05
-3.583e-05
-1.37018e-05
-4.61221e-05
-1.21482e-05
-5.38149e-05
-6.18802e-06
-5.21508e-05
-2.88589e-05
-5.80456e-06
2.54387e-05
-9.68564e-06
4.15104e-05
-8.87935e-06
4.13371e-05
-4.85256e-06
3.6164e-05
7.22748e-07
2.9983e-05
6.6654e-06
2.40837e-05
1.22177e-05
1.88167e-05
1.6912e-05
1.41544e-05
2.04529e-05
9.93523e-06
2.26328e-05
5.96088e-06
2.32797e-05
2.01734e-06
2.22329e-05
-2.13765e-06
1.93504e-05
-6.80369e-06
1.45664e-05
-1.23739e-05
8.04119e-06
-1.93508e-05
4.56205e-07
-2.8245e-05
-6.56158e-06
-3.91043e-05
-1.01457e-05
-5.02308e-05
-7.18185e-06
-5.51147e-05
-3.60407e-05
-7.37026e-06
3.2809e-05
-7.30531e-06
4.14454e-05
-4.70062e-07
3.45019e-05
8.97495e-06
2.6719e-05
1.86573e-05
2.03007e-05
2.74827e-05
1.52582e-05
3.49711e-05
1.13283e-05
4.09307e-05
8.19482e-06
4.5288e-05
5.57792e-06
4.79934e-05
3.25547e-06
4.89691e-05
1.04156e-06
4.80789e-05
-1.24744e-06
4.51082e-05
-3.83296e-06
3.97706e-05
-7.03623e-06
3.17847e-05
-1.1365e-05
2.11386e-05
-1.75989e-05
8.73674e-06
-2.67024e-05
-2.43149e-06
-3.90625e-05
-6.43923e-06
-5.11069e-05
-4.24799e-05
-3.63568e-06
3.64447e-05
8.2552e-06
2.95546e-05
2.43524e-05
1.84047e-05
3.90773e-05
1.19941e-05
5.12808e-05
8.09721e-06
6.09963e-05
5.54275e-06
6.85068e-05
3.81779e-06
7.41035e-05
2.59815e-06
7.80101e-05
1.67128e-06
8.03622e-05
9.03399e-07
8.1199e-05
2.04807e-07
8.04544e-05
-5.02906e-07
7.79243e-05
-1.3028e-06
7.32194e-05
-2.33134e-06
6.56955e-05
-3.84104e-06
5.44452e-05
-6.34865e-06
3.86481e-05
-1.09053e-05
1.89818e-05
-1.93963e-05
1.449e-06
-3.35741e-05
-4.10309e-05
3.64447e-05
6.59992e-05
8.44039e-05
9.6398e-05
0.000104495
0.000110038
0.000113856
0.000116454
0.000118125
0.000119029
0.000119233
0.00011873
0.000117428
0.000115096
0.000111255
0.000104907
9.40013e-05
7.46051e-05
4.10309e-05
)
;

boundaryField
{
    movingWall
    {
        type            calculated;
        value           uniform 0;
    }
    fixedWalls
    {
        type            calculated;
        value           uniform 0;
    }
    frontAndBack
    {
        type            empty;
        value           nonuniform List<scalar> 0();
    }
}


// ************************************************************************* //
