/*--------------------------------*- C++ -*----------------------------------*\
  =========                 |
  \\      /  F ield         | OpenFOAM: The Open Source CFD Toolbox
   \\    /   O peration     | Website:  https://openfoam.org
    \\  /    A nd           | Version:  8
     \\/     M anipulation  |
\*---------------------------------------------------------------------------*/
FoamFile
{
    version     2.0;
    format      ascii;
    class       volVectorField;
    location    "0.4";
    object      U;
}
// * * * * * * * * * * * * * * * * * * * * * * * * * * * * * * * * * * * * * //

dimensions      [0 1 -1 0 0 0 0];

internalField   nonuniform List<vector> 
400
(
(0.000683717 -0.000679768 0)
(0.000299354 0.000346256 0)
(-0.00344121 0.00158534 0)
(-0.00984573 0.00243869 0)
(-0.0178156 0.00286168 0)
(-0.0263032 0.00291161 0)
(-0.0343956 0.00265637 0)
(-0.0413306 0.0021557 0)
(-0.0464901 0.00145971 0)
(-0.0493977 0.000617201 0)
(-0.0497349 -0.000313781 0)
(-0.0473768 -0.00125793 0)
(-0.0424382 -0.0021197 0)
(-0.0353159 -0.00278708 0)
(-0.0267091 -0.00314251 0)
(-0.0176017 -0.0030813 0)
(-0.00918587 -0.00253735 0)
(-0.00271468 -0.00151564 0)
(0.000736431 -0.000176903 0)
(0.000796326 0.000775151 0)
(-0.000282246 -0.000368999 0)
(-0.00472932 0.00474848 0)
(-0.0162512 0.0101427 0)
(-0.0330347 0.0139347 0)
(-0.0528657 0.0158103 0)
(-0.0735886 0.0158794 0)
(-0.0931752 0.0143761 0)
(-0.10985 0.0115639 0)
(-0.122153 0.00770976 0)
(-0.128973 0.00310157 0)
(-0.129603 -0.00192101 0)
(-0.123812 -0.00694319 0)
(-0.111933 -0.0114719 0)
(-0.0949226 -0.014961 0)
(-0.0743831 -0.0168698 0)
(-0.0524879 -0.0167534 0)
(-0.0317764 -0.0143853 0)
(-0.0148021 -0.00990102 0)
(-0.00378417 -0.00405777 0)
(-6.17457e-06 0.0008318 0)
(-0.00158398 0.00332455 0)
(-0.0107156 0.0163866 0)
(-0.0300871 0.0286522 0)
(-0.0562745 0.0371782 0)
(-0.0860921 0.0412595 0)
(-0.116668 0.0410143 0)
(-0.145264 0.0369009 0)
(-0.169447 0.0295166 0)
(-0.187208 0.019527 0)
(-0.197021 0.00768198 0)
(-0.197924 -0.00513742 0)
(-0.189616 -0.0178829 0)
(-0.172556 -0.0293446 0)
(-0.148043 -0.0382183 0)
(-0.118236 -0.0432449 0)
(-0.0860542 -0.0434253 0)
(-0.0549104 -0.0382976 0)
(-0.0282616 -0.0282426 0)
(-0.00941264 -0.0148903 0)
(-0.00117286 -0.00218717 0)
(-0.00274078 0.0102447 0)
(-0.0163379 0.0347651 0)
(-0.0433104 0.0557731 0)
(-0.0783542 0.069891 0)
(-0.117235 0.0762558 0)
(-0.156475 0.0751035 0)
(-0.192824 0.0671964 0)
(-0.223409 0.0535498 0)
(-0.245862 0.0353289 0)
(-0.258378 0.0138637 0)
(-0.259801 -0.00928804 0)
(-0.249728 -0.0322924 0)
(-0.228631 -0.0530539 0)
(-0.197959 -0.0693265 0)
(-0.160188 -0.0789441 0)
(-0.118753 -0.0801744 0)
(-0.0777775 -0.0721711 0)
(-0.0416065 -0.0554501 0)
(-0.0148422 -0.0323911 0)
(-0.00221107 -0.0082123 0)
(-0.00374772 0.0200369 0)
(-0.0214909 0.0593956 0)
(-0.0557048 0.090831 0)
(-0.099162 0.111112 0)
(-0.146532 0.119588 0)
(-0.193761 0.116831 0)
(-0.237194 0.104042 0)
(-0.273656 0.0827362 0)
(-0.300541 0.0546393 0)
(-0.315849 0.0217111 0)
(-0.318243 -0.0137644 0)
(-0.307163 -0.0491069 0)
(-0.282964 -0.0812482 0)
(-0.247066 -0.106872 0)
(-0.202072 -0.122726 0)
(-0.151787 -0.126111 0)
(-0.101006 -0.115528 0)
(-0.0550745 -0.0913495 0)
(-0.0201514 -0.056433 0)
(-0.00314783 -0.0170067 0)
(-0.00466039 0.0324417 0)
(-0.0262938 0.0899454 0)
(-0.0674008 0.13351 0)
(-0.118869 0.160502 0)
(-0.174266 0.170872 0)
(-0.228996 0.165813 0)
(-0.279076 0.147134 0)
(-0.321135 0.116951 0)
(-0.352431 0.0775863 0)
(-0.370825 0.0316321 0)
(-0.374806 -0.0179144 0)
(-0.363584 -0.067531 0)
(-0.337261 -0.113142 0)
(-0.297035 -0.150254 0)
(-0.24544 -0.174314 0)
(-0.186506 -0.181339 0)
(-0.125667 -0.168773 0)
(-0.0694075 -0.136425 0)
(-0.0257408 -0.0872991 0)
(-0.00409983 -0.0285432 0)
(-0.00552808 0.0472981 0)
(-0.030882 0.126132 0)
(-0.0785763 0.183472 0)
(-0.13764 0.217672 0)
(-0.200556 0.229689 0)
(-0.262239 0.221652 0)
(-0.318479 0.19619 0)
(-0.365824 0.156121 0)
(-0.401507 0.104381 0)
(-0.423325 0.0441521 0)
(-0.429604 -0.0209337 0)
(-0.419268 -0.086588 0)
(-0.392018 -0.147756 0)
(-0.34862 -0.198694 0)
(-0.291285 -0.233325 0)
(-0.224045 -0.245972 0)
(-0.152869 -0.232467 0)
(-0.0854741 -0.191458 0)
(-0.0320866 -0.125649 0)
(-0.00519584 -0.0430646 0)
(-0.00639008 0.0645247 0)
(-0.0353731 0.167735 0)
(-0.0893754 0.240352 0)
(-0.155529 0.282112 0)
(-0.225254 0.295428 0)
(-0.293061 0.283732 0)
(-0.354657 0.250712 0)
(-0.406671 0.199994 0)
(-0.446462 0.135127 0)
(-0.471884 0.0597891 0)
(-0.481156 -0.0219 0)
(-0.472889 -0.105047 0)
(-0.446252 -0.183739 0)
(-0.401335 -0.250979 0)
(-0.339695 -0.298967 0)
(-0.265002 -0.319866 0)
(-0.183497 -0.307164 0)
(-0.104108 -0.257492 0)
(-0.0396807 -0.17255 0)
(-0.00656993 -0.0610935 0)
(-0.00728553 0.0841062 0)
(-0.0398852 0.214593 0)
(-0.0999186 0.303726 0)
(-0.172476 0.353104 0)
(-0.247922 0.367141 0)
(-0.320506 0.351017 0)
(-0.386055 0.309755 0)
(-0.441517 0.247905 0)
(-0.484599 0.169602 0)
(-0.5134 0.0788812 0)
(-0.526164 -0.0198709 0)
(-0.521222 -0.121423 0)
(-0.497124 -0.219247 0)
(-0.453033 -0.305229 0)
(-0.389425 -0.369737 0)
(-0.309074 -0.402296 0)
(-0.217968 -0.393149 0)
(-0.126 -0.335686 0)
(-0.0490191 -0.229446 0)
(-0.00837087 -0.0834346 0)
(-0.00827702 0.106106 0)
(-0.0446026 0.266604 0)
(-0.110385 0.373057 0)
(-0.188369 0.42958 0)
(-0.267861 0.443325 0)
(-0.343072 0.421775 0)
(-0.410261 0.371621 0)
(-0.467016 0.298459 0)
(-0.511711 0.206964 0)
(-0.542962 0.101342 0)
(-0.55926 -0.0140553 0)
(-0.558795 -0.134036 0)
(-0.53949 -0.251865 0)
(-0.49937 -0.358645 0)
(-0.437359 -0.443004 0)
(-0.354593 -0.491461 0)
(-0.255935 -0.48998 0)
(-0.151594 -0.427022 0)
(-0.0606182 -0.298063 0)
(-0.0107851 -0.111189 0)
(-0.00949307 0.130735 0)
(-0.0498888 0.323783 0)
(-0.121149 0.44763 0)
(-0.203134 0.509937 0)
(-0.284132 0.521641 0)
(-0.358678 0.493254 0)
(-0.423918 0.433518 0)
(-0.47853 0.349198 0)
(-0.521955 0.245427 0)
(-0.553691 0.126351 0)
(-0.572795 -0.00407251 0)
(-0.577567 -0.141182 0)
(-0.565447 -0.278623 0)
(-0.533228 -0.40732 0)
(-0.477845 -0.514587 0)
(-0.397902 -0.583858 0)
(-0.295848 -0.595815 0)
(-0.180912 -0.531809 0)
(-0.075042 -0.380232 0)
(-0.0140764 -0.145799 0)
(-0.0112029 0.158515 0)
(-0.0564602 0.386374 0)
(-0.132935 0.526471 0)
(-0.216785 0.591774 0)
(-0.295464 0.598562 0)
(-0.364474 0.561302 0)
(-0.42252 0.491198 0)
(-0.46994 0.396249 0)
(-0.507716 0.281918 0)
(-0.536641 0.152021 0)
(-0.556724 0.00971772 0)
(-0.566754 -0.141423 0)
(-0.563998 -0.296176 0)
(-0.544167 -0.446195 0)
(-0.501953 -0.578381 0)
(-0.43254 -0.67356 0)
(-0.334282 -0.706496 0)
(-0.213243 -0.648906 0)
(-0.0929249 -0.477601 0)
(-0.0186526 -0.189153 0)
(-0.0139495 0.190609 0)
(-0.0656313 0.455026 0)
(-0.146918 0.60814 0)
(-0.229232 0.671447 0)
(-0.299821 0.668871 0)
(-0.356295 0.61993 0)
(-0.399871 0.538605 0)
(-0.433231 0.434061 0)
(-0.45937 0.311848 0)
(-0.480743 0.175135 0)
(-0.498679 0.0258842 0)
(-0.512892 -0.133979 0)
(-0.520987 -0.30118 0)
(-0.518065 -0.469265 0)
(-0.496747 -0.626183 0)
(-0.448221 -0.751505 0)
(-0.364913 -0.814353 0)
(-0.246533 -0.774511 0)
(-0.114938 -0.591072 0)
(-0.0251704 -0.243769 0)
(-0.0187735 0.229392 0)
(-0.0796016 0.530886 0)
(-0.164515 0.690165 0)
(-0.239435 0.743246 0)
(-0.293139 0.724929 0)
(-0.327283 0.660821 0)
(-0.346867 0.567654 0)
(-0.357592 0.455359 0)
(-0.364775 0.329126 0)
(-0.372693 0.191106 0)
(-0.384183 0.0417272 0)
(-0.400245 -0.119147 0)
(-0.419448 -0.290894 0)
(-0.437142 -0.470191 0)
(-0.444724 -0.647979 0)
(-0.429615 -0.805045 0)
(-0.376952 -0.906841 0)
(-0.276164 -0.900312 0)
(-0.141516 -0.71967 0)
(-0.0346563 -0.313044 0)
(-0.02751 0.279359 0)
(-0.101514 0.615265 0)
(-0.18612 0.767666 0)
(-0.242906 0.797943 0)
(-0.266279 0.755705 0)
(-0.264947 0.672981 0)
(-0.249055 0.568389 0)
(-0.22767 0.451614 0)
(-0.20828 0.326735 0)
(-0.196673 0.194443 0)
(-0.19698 0.053446 0)
(-0.211566 -0.0985725 0)
(-0.240517 -0.26396 0)
(-0.280594 -0.443459 0)
(-0.323661 -0.633067 0)
(-0.355024 -0.818331 0)
(-0.35274 -0.965438 0)
(-0.292471 -1.01094 0)
(-0.171696 -0.858286 0)
(-0.048424 -0.401339 0)
(-0.0427661 0.348541 0)
(-0.13405 0.707856 0)
(-0.206654 0.830165 0)
(-0.225368 0.82036 0)
(-0.198581 0.745762 0)
(-0.145675 0.642965 0)
(-0.0825077 0.530022 0)
(-0.0208262 0.414487 0)
(0.0307955 0.298222 0)
(0.0661248 0.180037 0)
(0.0805656 0.0569777 0)
(0.0708097 -0.0751034 0)
(0.035049 -0.221148 0)
(-0.026037 -0.386056 0)
(-0.10719 -0.572307 0)
(-0.195114 -0.774124 0)
(-0.264128 -0.965495 0)
(-0.27572 -1.08091 0)
(-0.199403 -0.993788 0)
(-0.0668925 -0.514072 0)
(-0.0658496 0.4515 0)
(-0.172576 0.800878 0)
(-0.202497 0.853789 0)
(-0.148368 0.784719 0)
(-0.045868 0.674179 0)
(0.073841 0.556144 0)
(0.191624 0.443326 0)
(0.295886 0.338526 0)
(0.379449 0.240277 0)
(0.437585 0.14536 0)
(0.466676 0.0496284 0)
(0.463456 -0.0519679 0)
(0.424792 -0.165692 0)
(0.348194 -0.2993 0)
(0.233641 -0.461368 0)
(0.0879487 -0.657342 0)
(-0.0673671 -0.877536 0)
(-0.187004 -1.07096 0)
(-0.204281 -1.09812 0)
(-0.084818 -0.658321 0)
(-0.0848893 0.606735 0)
(-0.180712 0.860751 0)
(-0.0981709 0.787546 0)
(0.0789621 0.651067 0)
(0.277819 0.517607 0)
(0.466259 0.402317 0)
(0.630929 0.306413 0)
(0.766101 0.226134 0)
(0.869622 0.156648 0)
(0.940578 0.0934017 0)
(0.977892 0.0321129 0)
(0.979547 -0.0317406 0)
(0.94209 -0.103729 0)
(0.860386 -0.19164 0)
(0.728175 -0.306761 0)
(0.541084 -0.463886 0)
(0.304061 -0.675108 0)
(0.0475716 -0.926671 0)
(-0.131417 -1.11027 0)
(-0.0750161 -0.826501 0)
(-0.000750535 0.747093 0)
(0.00852586 0.780952 0)
(0.31081 0.568185 0)
(0.64066 0.401484 0)
(0.914384 0.285354 0)
(1.13268 0.203335 0)
(1.30381 0.144572 0)
(1.43401 0.101003 0)
(1.52838 0.0667636 0)
(1.59061 0.0377847 0)
(1.62254 0.0110627 0)
(1.62398 -0.016068 0)
(1.59237 -0.0467562 0)
(1.52199 -0.0857321 0)
(1.40279 -0.141322 0)
(1.21946 -0.228762 0)
(0.95009 -0.373771 0)
(0.573645 -0.607632 0)
(0.174135 -0.906217 0)
(0.0803989 -0.886127 0)
(0.817622 0.40032 0)
(1.06368 0.352923 0)
(1.49334 0.217755 0)
(1.81898 0.131323 0)
(2.02143 0.0810166 0)
(2.15363 0.0508077 0)
(2.24466 0.0322101 0)
(2.30748 0.0202891 0)
(2.34937 0.0120676 0)
(2.37466 0.00580035 0)
(2.38559 0.00042483 0)
(2.38274 -0.00482197 0)
(2.36517 -0.0107672 0)
(2.32984 -0.0186636 0)
(2.27011 -0.0310294 0)
(2.1724 -0.0534771 0)
(2.00525 -0.0985643 0)
(1.69446 -0.191318 0)
(1.21341 -0.354376 0)
(0.889285 -0.425471 0)
)
;

boundaryField
{
    movingWall
    {
        type            fixedValue;
        value           uniform (2.8 0 0);
    }
    fixedWalls
    {
        type            noSlip;
    }
    frontAndBack
    {
        type            empty;
    }
}


// ************************************************************************* //
