/*--------------------------------*- C++ -*----------------------------------*\
  =========                 |
  \\      /  F ield         | OpenFOAM: The Open Source CFD Toolbox
   \\    /   O peration     | Website:  https://openfoam.org
    \\  /    A nd           | Version:  8
     \\/     M anipulation  |
\*---------------------------------------------------------------------------*/
FoamFile
{
    version     2.0;
    format      ascii;
    class       volScalarField;
    location    "0.2";
    object      p;
}
// * * * * * * * * * * * * * * * * * * * * * * * * * * * * * * * * * * * * * //

dimensions      [0 2 -2 0 0 0 0];

internalField   nonuniform List<scalar> 
400
(
4.6948e-07
-0.00815912
-0.0180954
-0.0256542
-0.0284409
-0.0254013
-0.016452
-0.00218677
0.0163272
0.0376778
0.0602005
0.0820731
0.101437
0.116561
0.126056
0.129134
0.125907
0.1177
0.107323
0.0991953
0.00808848
-0.00031569
-0.00808733
-0.013259
-0.0147096
-0.0117083
-0.00415062
0.00754755
0.0225892
0.039885
0.0581257
0.0758663
0.0916351
0.104075
0.112115
0.115172
0.113362
0.107633
0.0994798
0.0911608
0.0186045
0.00698167
-0.00139597
-0.00612214
-0.00728312
-0.00451103
0.00219631
0.0124508
0.0255813
0.0406814
0.0566498
0.0722528
0.0862138
0.0973337
0.104635
0.107527
0.105998
0.100628
0.0917572
0.0801967
0.0279751
0.0119761
0.00161337
-0.00374602
-0.00519647
-0.00269435
0.00361699
0.0132983
0.025713
0.0400396
0.0552779
0.0702846
0.0838408
0.0947543
0.101986
0.104802
0.102992
0.0968174
0.0857034
0.0695935
0.0337858
0.0132366
0.000522204
-0.00577457
-0.00761398
-0.00523105
0.00108631
0.0108246
0.0233448
0.0378642
0.0534295
0.0689238
0.0831116
0.0947225
0.102565
0.105683
0.103619
0.0963357
0.0824822
0.061425
0.0342426
0.009162
-0.00596804
-0.0132089
-0.0152987
-0.0127192
-0.00589638
0.0045735
0.0180297
0.0337017
0.0506489
0.0677386
0.0836647
0.097012
0.106359
0.110446
0.108505
0.100184
0.0834022
0.0571045
0.0278005
-0.00180169
-0.0192685
-0.0272568
-0.0292646
-0.0260161
-0.0180761
-0.00612773
0.00914045
0.0269609
0.0463932
0.0662682
0.0851756
0.101502
0.113521
0.119577
0.118494
0.109527
0.0897956
0.0578569
0.0128945
-0.0212751
-0.0408856
-0.0492255
-0.0506174
-0.0460602
-0.0362724
-0.0220265
-0.00403228
0.0169584
0.0400184
0.0639499
0.0872315
0.10802
0.124211
0.133641
0.134585
0.125747
0.103229
0.065105
-0.0122568
-0.0511108
-0.0725426
-0.0806011
-0.080597
-0.0738844
-0.0613691
-0.0439164
-0.0222365
0.00297094
0.0308365
0.0601767
0.0893879
0.116393
0.138656
0.153373
0.158076
0.150652
0.125785
0.080812
-0.0498242
-0.0935495
-0.116265
-0.123051
-0.120513
-0.110504
-0.0941752
-0.072486
-0.0461096
-0.015628
0.0182285
0.0543784
0.0912145
0.126472
0.157158
0.179704
0.190649
0.186667
0.16036
0.107844
-0.102606
-0.151431
-0.174475
-0.178387
-0.171607
-0.156715
-0.135185
-0.108066
-0.0759283
-0.0391369
0.00184423
0.0461779
0.0923996
0.138178
0.180115
0.213788
0.234461
0.237054
0.21106
0.150459
-0.174474
-0.22854
-0.250113
-0.248483
-0.23483
-0.212787
-0.184234
-0.15027
-0.111259
-0.0671964
-0.0181017
0.0356386
0.0929329
0.151616
0.208063
0.257021
0.29224
0.306197
0.283754
0.21508
-0.271298
-0.330203
-0.346789
-0.335089
-0.310472
-0.278019
-0.240036
-0.197554
-0.150538
-0.0984003
-0.0404795
0.0235631
0.0933339
0.167211
0.241721
0.311041
0.367338
0.399925
0.38691
0.311675
-0.402981
-0.46431
-0.46885
-0.439403
-0.397553
-0.350109
-0.299615
-0.246722
-0.190664
-0.12996
-0.0629638
0.0117178
0.0948019
0.185747
0.281894
0.377516
0.463574
0.525754
0.53286
0.456431
-0.587827
-0.642906
-0.621035
-0.561029
-0.492725
-0.424254
-0.357666
-0.292537
-0.226799
-0.157635
-0.0820605
0.00273352
0.0990328
0.208052
0.32894
0.457369
0.584398
0.692622
0.739502
0.676885
-0.860582
-0.883961
-0.807253
-0.696277
-0.588871
-0.492265
-0.406195
-0.327782
-0.252722
-0.176279
-0.0937547
-0.000591332
0.107485
0.234177
0.381751
0.549445
0.731265
0.909488
1.03138
1.0197
-1.28731
-1.21205
-1.02838
-0.836997
-0.674813
-0.543004
-0.435547
-0.344657
-0.262401
-0.181456
-0.0950985
0.0032086
0.119982
0.262099
0.436518
0.64918
0.901774
1.18243
1.43915
1.56338
-2.02131
-1.6568
-1.26899
-0.96134
-0.730509
-0.560612
-0.434543
-0.336015
-0.251826
-0.171604
-0.0866262
0.0114009
0.131178
0.283099
0.48038
0.7396
1.07691
1.49989
2.00127
2.47788
-3.47744
-2.23042
-1.43038
-0.980771
-0.694328
-0.505695
-0.379764
-0.289397
-0.216091
-0.147398
-0.0737706
0.0133625
0.123725
0.269903
0.470867
0.756143
1.16609
1.76589
2.7405
4.19038
-6.01164
-2.79005
-1.31737
-0.765048
-0.493968
-0.341798
-0.254531
-0.198882
-0.1554
-0.112922
-0.0637744
-0.00119701
0.082451
0.198055
0.364609
0.618338
1.02791
1.77055
3.46737
6.91544
)
;

boundaryField
{
    movingWall
    {
        type            zeroGradient;
    }
    fixedWalls
    {
        type            zeroGradient;
    }
    frontAndBack
    {
        type            empty;
    }
}


// ************************************************************************* //
