/*--------------------------------*- C++ -*----------------------------------*\
  =========                 |
  \\      /  F ield         | OpenFOAM: The Open Source CFD Toolbox
   \\    /   O peration     | Website:  https://openfoam.org
    \\  /    A nd           | Version:  8
     \\/     M anipulation  |
\*---------------------------------------------------------------------------*/
FoamFile
{
    version     2.0;
    format      ascii;
    class       volVectorField;
    location    "0.2";
    object      U;
}
// * * * * * * * * * * * * * * * * * * * * * * * * * * * * * * * * * * * * * //

dimensions      [0 1 -1 0 0 0 0];

internalField   nonuniform List<vector> 
400
(
(0.000351481 -0.000347397 0)
(0.000185455 0.000160688 0)
(-0.00166638 0.0007913 0)
(-0.00488633 0.00123433 0)
(-0.00892357 0.0014558 0)
(-0.0132303 0.0014785 0)
(-0.0173202 0.00133699 0)
(-0.0207903 0.00106661 0)
(-0.0233264 0.000700247 0)
(-0.0247035 0.000269469 0)
(-0.0247893 -0.000192618 0)
(-0.0235524 -0.000648891 0)
(-0.021074 -0.00105688 0)
(-0.0175588 -0.00136923 0)
(-0.0133409 -0.00153622 0)
(-0.00887861 -0.0015112 0)
(-0.00472798 -0.00125994 0)
(-0.00148869 -0.000774991 0)
(0.000293353 -0.000119099 0)
(0.000379511 0.000371196 0)
(-0.000116406 -0.000223212 0)
(-0.00228203 0.0023207 0)
(-0.00800578 0.00506567 0)
(-0.0164288 0.00702783 0)
(-0.0264371 0.00800536 0)
(-0.0369076 0.00803031 0)
(-0.0467723 0.00722251 0)
(-0.055105 0.00573619 0)
(-0.0611678 0.00373673 0)
(-0.0644315 0.00139718 0)
(-0.0645926 -0.00109661 0)
(-0.061593 -0.00354023 0)
(-0.0556413 -0.00570944 0)
(-0.0472283 -0.00736666 0)
(-0.0371267 -0.00827794 0)
(-0.0263617 -0.00824345 0)
(-0.0161294 -0.00714479 0)
(-0.00765324 -0.00501035 0)
(-0.00204985 -0.00215197 0)
(-4.81601e-05 0.000337734 0)
(-0.00075208 0.00156104 0)
(-0.00523212 0.00806847 0)
(-0.0148698 0.0143133 0)
(-0.0280107 0.0187208 0)
(-0.0430437 0.0208448 0)
(-0.0584687 0.0206983 0)
(-0.0728466 0.0185181 0)
(-0.0849142 0.0146527 0)
(-0.0936593 0.00950376 0)
(-0.0983548 0.00350853 0)
(-0.0985856 -0.00285863 0)
(-0.0942754 -0.00908061 0)
(-0.0857127 -0.0146006 0)
(-0.0735674 -0.0188426 0)
(-0.0588881 -0.0212561 0)
(-0.04306 -0.0213917 0)
(-0.0276908 -0.0190105 0)
(-0.0144274 -0.0142228 0)
(-0.00491269 -0.0077043 0)
(-0.000650635 -0.00128057 0)
(-0.00131537 0.00493023 0)
(-0.00801059 0.017168 0)
(-0.0214646 0.0278784 0)
(-0.0390822 0.0351821 0)
(-0.0587054 0.0384943 0)
(-0.0785036 0.0378631 0)
(-0.0967614 0.033689 0)
(-0.111987 0.0265662 0)
(-0.122992 0.0171925 0)
(-0.128921 0.006336 0)
(-0.129283 -0.00516789 0)
(-0.123975 -0.0164123 0)
(-0.113317 -0.0264268 0)
(-0.0980749 -0.0342135 0)
(-0.0794628 -0.0388235 0)
(-0.0591146 -0.0394827 0)
(-0.038963 -0.0357684 0)
(-0.0210559 -0.0278178 0)
(-0.00764483 -0.0165922 0)
(-0.00118475 -0.00442981 0)
(-0.00180874 0.00971674 0)
(-0.0105889 0.0294072 0)
(-0.0277372 0.0454688 0)
(-0.0496754 0.0559754 0)
(-0.0736551 0.0603779 0)
(-0.0975177 0.0588744 0)
(-0.119317 0.0521065 0)
(-0.137399 0.0409693 0)
(-0.150461 0.0264993 0)
(-0.15757 0.00983055 0)
(-0.158175 -0.00780807 0)
(-0.152134 -0.0250854 0)
(-0.139753 -0.0405754 0)
(-0.121816 -0.0528031 0)
(-0.0996278 -0.0603483 0)
(-0.0750002 -0.0620203 0)
(-0.0501637 -0.0571016 0)
(-0.0275997 -0.0456275 0)
(-0.0102641 -0.0286935 0)
(-0.00166114 -0.00897175 0)
(-0.00226753 0.0158154 0)
(-0.0130595 0.0446821 0)
(-0.033823 0.0670059 0)
(-0.0599794 0.0810052 0)
(-0.0881612 0.0863557 0)
(-0.115881 0.0835555 0)
(-0.140996 0.0735932 0)
(-0.161738 0.0577324 0)
(-0.176748 0.0373853 0)
(-0.185052 0.0140686 0)
(-0.186055 -0.0105902 0)
(-0.179559 -0.0348303 0)
(-0.165801 -0.0567521 0)
(-0.14552 -0.0743598 0)
(-0.120027 -0.0856815 0)
(-0.0912534 -0.0889864 0)
(-0.061708 -0.0831003 0)
(-0.0343475 -0.0677725 0)
(-0.0129337 -0.044058 0)
(-0.00213055 -0.0148595 0)
(-0.00272551 0.0231904 0)
(-0.0155284 0.06295 0)
(-0.0398881 0.092437 0)
(-0.0701855 0.110179 0)
(-0.102409 0.116282 0)
(-0.133756 0.111724 0)
(-0.161928 0.0979717 0)
(-0.185109 0.0767334 0)
(-0.201942 0.0498293 0)
(-0.21146 0.0191556 0)
(-0.213042 -0.0132845 0)
(-0.206415 -0.0453269 0)
(-0.191702 -0.074608 0)
(-0.16951 -0.0985838 0)
(-0.141061 -0.114646 0)
(-0.108318 -0.12037 0)
(-0.0740248 -0.113909 0)
(-0.0416386 -0.0944795 0)
(-0.015845 -0.0628784 0)
(-0.00264671 -0.0221586 0)
(-0.00321249 0.0318678 0)
(-0.0180944 0.0842376 0)
(-0.046081 0.121729 0)
(-0.0804224 0.143364 0)
(-0.116436 0.149925 0)
(-0.151035 0.143087 0)
(-0.181842 0.12495 0)
(-0.207083 0.0977542 0)
(-0.22549 0.0637494 0)
(-0.236169 0.025185 0)
(-0.238509 -0.0156171 0)
(-0.232155 -0.0561543 0)
(-0.217058 -0.0936476 0)
(-0.193594 -0.125006 0)
(-0.162764 -0.146908 0)
(-0.126427 -0.15606 0)
(-0.0874551 -0.149665 0)
(-0.0497958 -0.126069 0)
(-0.0191908 -0.0855039 0)
(-0.00326322 -0.0310467 0)
(-0.00375883 0.0419296 0)
(-0.0208552 0.108636 0)
(-0.0525276 0.154849 0)
(-0.0907339 0.180337 0)
(-0.130086 0.186882 0)
(-0.167287 0.177133 0)
(-0.199999 0.15401 0)
(-0.226626 0.120377 0)
(-0.246117 0.0789198 0)
(-0.257749 0.0321853 0)
(-0.260979 -0.0172833 0)
(-0.255379 -0.0667603 0)
(-0.240677 -0.113153 0)
(-0.216901 -0.152875 0)
(-0.184653 -0.181846 0)
(-0.145473 -0.195718 0)
(-0.102171 -0.190402 0)
(-0.0590904 -0.162905 0)
(-0.0231637 -0.112428 0)
(-0.00403791 -0.041812 0)
(-0.00440678 0.0535186 0)
(-0.0239349 0.136291 0)
(-0.0593552 0.191712 0)
(-0.101078 0.220685 0)
(-0.142982 0.226446 0)
(-0.181692 0.212984 0)
(-0.215102 0.184259 0)
(-0.241993 0.143849 0)
(-0.261706 0.0948613 0)
(-0.273826 0.0400464 0)
(-0.277966 -0.0179782 0)
(-0.273661 -0.0764391 0)
(-0.260376 -0.132104 0)
(-0.237671 -0.181018 0)
(-0.205524 -0.218363 0)
(-0.164857 -0.238577 0)
(-0.118086 -0.235877 0)
(-0.0697207 -0.205294 0)
(-0.027971 -0.144258 0)
(-0.00504367 -0.0548581 0)
(-0.00523089 0.0668696 0)
(-0.0275326 0.167416 0)
(-0.0667336 0.232119 0)
(-0.111323 0.263671 0)
(-0.154461 0.267434 0)
(-0.192935 0.249208 0)
(-0.225167 0.214253 0)
(-0.250587 0.16693 0)
(-0.269152 0.110718 0)
(-0.280927 0.0484269 0)
(-0.285802 -0.0174514 0)
(-0.283338 -0.0843369 0)
(-0.272738 -0.149116 0)
(-0.252982 -0.207702 0)
(-0.223188 -0.254675 0)
(-0.18326 -0.28318 0)
(-0.134718 -0.285319 0)
(-0.0817777 -0.25331 0)
(-0.0338617 -0.181664 0)
(-0.006388 -0.0707289 0)
(-0.00637458 0.0823828 0)
(-0.0319963 0.202305 0)
(-0.0749126 0.275655 0)
(-0.121196 0.308039 0)
(-0.163436 0.307948 0)
(-0.19901 0.283602 0)
(-0.227307 0.241811 0)
(-0.248754 0.187748 0)
(-0.264182 0.125137 0)
(-0.274319 0.0566549 0)
(-0.279469 -0.015585 0)
(-0.279316 -0.0894954 0)
(-0.272852 -0.162427 0)
(-0.258431 -0.230524 0)
(-0.234102 -0.288077 0)
(-0.198304 -0.32704 0)
(-0.150955 -0.33706 0)
(-0.0951651 -0.306521 0)
(-0.0411637 -0.225305 0)
(-0.00824728 -0.0901659 0)
(-0.00811501 0.100773 0)
(-0.0379247 0.241363 0)
(-0.0842054 0.321484 0)
(-0.130087 0.351689 0)
(-0.168056 0.345059 0)
(-0.196833 0.31293 0)
(-0.217373 0.263845 0)
(-0.231502 0.20368 0)
(-0.24116 0.136189 0)
(-0.247882 0.0636498 0)
(-0.252498 -0.0124848 0)
(-0.254939 -0.090947 0)
(-0.254101 -0.169953 0)
(-0.247797 -0.246372 0)
(-0.232917 -0.314746 0)
(-0.206041 -0.36625 0)
(-0.164629 -0.388011 0)
(-0.109404 -0.363538 0)
(-0.0503181 -0.275666 0)
(-0.0109253 -0.114223 0)
(-0.0109701 0.123333 0)
(-0.0462677 0.285041 0)
(-0.0947746 0.367925 0)
(-0.136482 0.391148 0)
(-0.164968 0.374373 0)
(-0.1815 0.332682 0)
(-0.189349 0.276268 0)
(-0.192086 0.211372 0)
(-0.192866 0.141403 0)
(-0.194044 0.0679222 0)
(-0.196999 -0.0085554 0)
(-0.202009 -0.0878688 0)
(-0.208081 -0.169484 0)
(-0.212741 -0.251564 0)
(-0.211917 -0.329679 0)
(-0.200191 -0.395103 0)
(-0.171747 -0.432974 0)
(-0.123158 -0.42125 0)
(-0.0618456 -0.332699 0)
(-0.014937 -0.144446 0)
(-0.0158216 0.152316 0)
(-0.0582526 0.333477 0)
(-0.105824 0.411571 0)
(-0.136588 0.420754 0)
(-0.147795 0.389574 0)
(-0.144981 0.336981 0)
(-0.134412 0.274175 0)
(-0.121469 0.207028 0)
(-0.110315 0.13805 0)
(-0.103873 0.0677414 0)
(-0.103915 -0.00450983 0)
(-0.111091 -0.0797967 0)
(-0.124773 -0.159073 0)
(-0.142693 -0.242296 0)
(-0.160438 -0.326997 0)
(-0.17104 -0.40596 0)
(-0.165092 -0.463866 0)
(-0.133087 -0.473613 0)
(-0.0759718 -0.394975 0)
(-0.0210417 -0.183065 0)
(-0.023807 0.191524 0)
(-0.0744299 0.385323 0)
(-0.113138 0.445513 0)
(-0.121203 0.431486 0)
(-0.104308 0.382132 0)
(-0.0740337 0.31896 0)
(-0.0396674 0.25255 0)
(-0.00776602 0.187192 0)
(0.017256 0.123809 0)
(0.0325481 0.0615774 0)
(0.0363514 -0.00123819 0)
(0.0277653 -0.0668609 0)
(0.00681374 -0.13765 0)
(-0.0251189 -0.215552 0)
(-0.0644182 -0.300875 0)
(-0.103973 -0.389707 0)
(-0.131765 -0.469118 0)
(-0.131188 -0.509842 0)
(-0.0910708 -0.457939 0)
(-0.0298505 -0.233241 0)
(-0.0349955 0.247602 0)
(-0.0908109 0.434529 0)
(-0.102602 0.455583 0)
(-0.0693146 0.409158 0)
(-0.0117629 0.341382 0)
(0.05252 0.271882 0)
(0.11304 0.207723 0)
(0.163893 0.150119 0)
(0.201872 0.0978635 0)
(0.22521 0.0488344 0)
(0.232787 0.000507343 0)
(0.223737 -0.0499609 0)
(0.197377 -0.105776 0)
(0.153546 -0.170456 0)
(0.0935756 -0.247251 0)
(0.0222207 -0.337105 0)
(-0.0492042 -0.43343 0)
(-0.099268 -0.511682 0)
(-0.0991357 -0.510384 0)
(-0.0398109 -0.299781 0)
(-0.041757 0.327462 0)
(-0.0865266 0.460992 0)
(-0.0352402 0.414857 0)
(0.0632695 0.334253 0)
(0.169322 0.257252 0)
(0.266072 0.192578 0)
(0.347051 0.140403 0)
(0.410135 0.0980666 0)
(0.45513 0.0624739 0)
(0.482369 0.0308141 0)
(0.491947 0.000524473 0)
(0.483377 -0.0309806 0)
(0.455423 -0.0667154 0)
(0.406153 -0.110528 0)
(0.333485 -0.167435 0)
(0.23686 -0.243111 0)
(0.120628 -0.340659 0)
(0.0014691 -0.45112 0)
(-0.0743977 -0.525075 0)
(-0.0394066 -0.38309 0)
(0.00861089 0.389743 0)
(0.0221809 0.40799 0)
(0.185547 0.293138 0)
(0.358874 0.201216 0)
(0.498342 0.13784 0)
(0.605625 0.0943891 0)
(0.686252 0.064274 0)
(0.744556 0.042625 0)
(0.784042 0.0260511 0)
(0.807153 0.0122571 0)
(0.815145 -0.00044485 0)
(0.808047 -0.0135638 0)
(0.784552 -0.0288648 0)
(0.741745 -0.0489055 0)
(0.674759 -0.0778769 0)
(0.576711 -0.122721 0)
(0.438317 -0.193951 0)
(0.252638 -0.303635 0)
(0.064028 -0.440483 0)
(0.028892 -0.425171 0)
(0.416998 0.203548 0)
(0.549499 0.178149 0)
(0.772808 0.107199 0)
(0.93672 0.062315 0)
(1.03498 0.0368892 0)
(1.09688 0.0222226 0)
(1.13785 0.0135536 0)
(1.16489 0.00818269 0)
(1.18191 0.00456857 0)
(1.19116 0.00184254 0)
(1.19373 -0.000523549 0)
(1.18983 -0.0029427 0)
(1.1788 -0.00587488 0)
(1.1588 -0.0100674 0)
(1.12611 -0.0169679 0)
(1.07352 -0.0295281 0)
(0.984723 -0.053688 0)
(0.824557 -0.100491 0)
(0.587696 -0.17881 0)
(0.43504 -0.210117 0)
)
;

boundaryField
{
    movingWall
    {
        type            fixedValue;
        value           uniform (1.4 0 0);
    }
    fixedWalls
    {
        type            noSlip;
    }
    frontAndBack
    {
        type            empty;
    }
}


// ************************************************************************* //
