/*--------------------------------*- C++ -*----------------------------------*\
  =========                 |
  \\      /  F ield         | OpenFOAM: The Open Source CFD Toolbox
   \\    /   O peration     | Website:  https://openfoam.org
    \\  /    A nd           | Version:  8
     \\/     M anipulation  |
\*---------------------------------------------------------------------------*/
FoamFile
{
    version     2.0;
    format      ascii;
    class       volScalarField;
    location    "0.4";
    object      p;
}
// * * * * * * * * * * * * * * * * * * * * * * * * * * * * * * * * * * * * * //

dimensions      [0 2 -2 0 0 0 0];

internalField   nonuniform List<scalar> 
400
(
9.99845e-06
-0.0204341
-0.0447859
-0.0630873
-0.0699541
-0.0630972
-0.0422619
-0.00853835
0.0359813
0.0882997
0.144543
0.200077
0.249813
0.288765
0.312835
0.31974
0.309964
0.287532
0.260415
0.240233
0.020324
-0.000827367
-0.0198472
-0.0322844
-0.0358853
-0.0290981
-0.011608
0.0158817
0.0518658
0.0940751
0.13949
0.184446
0.224905
0.256921
0.277287
0.284262
0.27828
0.262276
0.240865
0.22032
0.0461062
0.016909
-0.00346828
-0.0146684
-0.0175494
-0.0114643
0.00368006
0.0272985
0.0582533
0.0947838
0.134433
0.174086
0.210184
0.23913
0.25787
0.264557
0.259239
0.243923
0.220462
0.191745
0.0679378
0.0279915
0.0029929
-0.00959293
-0.0132984
-0.00829606
0.00522412
0.0266869
0.0552008
0.0893657
0.127082
0.165492
0.201121
0.230238
0.249422
0.256262
0.250174
0.232386
0.202684
0.162162
0.0791537
0.0283245
-0.00206327
-0.0168532
-0.0218862
-0.0180063
-0.00561987
0.0147317
0.0423958
0.0762957
0.114613
0.154621
0.192729
0.224797
0.246695
0.255099
0.248545
0.227471
0.18994
0.136071
0.0745893
0.0133658
-0.0224336
-0.0396136
-0.0460398
-0.0430901
-0.0312925
-0.0110852
0.0171623
0.0527201
0.0940482
0.138501
0.182257
0.22055
0.248222
0.260644
0.255109
0.231074
0.184908
0.116222
0.0498424
-0.0211571
-0.0620611
-0.081456
-0.0890632
-0.086703
-0.0749362
-0.0540071
-0.0239112
0.0150582
0.0617214
0.113564
0.166507
0.215009
0.252558
0.272738
0.271057
0.245522
0.190417
0.104962
0.000809393
-0.0793486
-0.124832
-0.145971
-0.15431
-0.15209
-0.139843
-0.117515
-0.0845931
-0.0407669
0.0133319
0.0754964
0.141499
0.204971
0.257759
0.291074
0.297855
0.273804
0.210145
0.10542
-0.0765698
-0.165356
-0.214698
-0.236777
-0.245104
-0.242415
-0.229193
-0.204991
-0.16861
-0.118895
-0.0556263
0.0196255
0.102771
0.18674
0.261545
0.315395
0.337599
0.32018
0.249533
0.122668
-0.186468
-0.28353
-0.335686
-0.35732
-0.364334
-0.360184
-0.345352
-0.318905
-0.278765
-0.222616
-0.14898
-0.058292
0.0460074
0.156544
0.261544
0.345662
0.393301
0.390798
0.316817
0.165047
-0.333444
-0.438701
-0.49192
-0.510555
-0.513842
-0.506394
-0.48881
-0.459605
-0.415589
-0.352933
-0.268394
-0.160632
-0.0316705
0.11157
0.256012
0.382541
0.469363
0.494484
0.424406
0.246017
-0.523177
-0.636797
-0.687741
-0.698545
-0.693617
-0.679428
-0.65687
-0.623801
-0.575658
-0.506695
-0.411363
-0.285803
-0.129652
0.051801
0.245292
0.42845
0.572436
0.643863
0.590803
0.387014
-0.764316
-0.886103
-0.927966
-0.921907
-0.900756
-0.873773
-0.842208
-0.803023
-0.749896
-0.674717
-0.569086
-0.425894
-0.241314
-0.0174889
0.234026
0.489303
0.712788
0.856932
0.843425
0.622248
-1.07285
-1.19964
-1.21814
-1.17889
-1.12813
-1.07864
-1.03162
-0.98248
-0.922509
-0.840665
-0.725183
-0.565073
-0.352069
-0.0835006
0.233378
0.576385
0.905822
1.15896
1.22281
1.00738
-1.482
-1.59919
-1.56413
-1.46343
-1.36245
-1.27655
-1.20522
-1.1409
-1.07132
-0.981746
-0.856531
-0.68036
-0.439804
-0.125892
0.261404
0.706655
1.17211
1.58323
1.78762
1.63405
-2.06202
-2.12084
-1.97005
-1.76197
-1.58194
-1.44235
-1.33692
-1.25221
-1.17055
-1.07237
-0.937636
-0.746436
-0.479763
-0.121226
0.339414
0.899851
1.5346
2.16829
2.61622
2.647
-2.96004
-2.82005
-2.43526
-2.05254
-1.75732
-1.54597
-1.39876
-1.29138
-1.19775
-1.0922
-0.949783
-0.745873
-0.455663
-0.0543852
0.48139
1.16986
2.01148
2.95038
3.80529
4.27041
-4.53634
-3.76819
-2.92688
-2.28714
-1.84325
-1.55014
-1.36349
-1.24021
-1.14217
-1.03657
-0.893763
-0.684857
-0.379609
0.0559035
0.661754
1.48571
2.57212
3.92438
5.48559
6.97069
-7.80266
-4.98892
-3.20524
-2.25402
-1.69121
-1.35769
-1.17228
-1.06811
-0.994441
-0.913409
-0.793346
-0.603814
-0.312262
0.121733
0.753937
1.66812
2.98164
4.86212
7.74335
11.8384
-13.8737
-6.16781
-2.77822
-1.62662
-1.11751
-0.872003
-0.779481
-0.760624
-0.761009
-0.74485
-0.684168
-0.55256
-0.32041
0.0494124
0.613471
1.47384
2.83387
5.1718
9.97466
19.1053
)
;

boundaryField
{
    movingWall
    {
        type            zeroGradient;
    }
    fixedWalls
    {
        type            zeroGradient;
    }
    frontAndBack
    {
        type            empty;
    }
}


// ************************************************************************* //
