/*--------------------------------*- C++ -*----------------------------------*\
  =========                 |
  \\      /  F ield         | OpenFOAM: The Open Source CFD Toolbox
   \\    /   O peration     | Website:  https://openfoam.org
    \\  /    A nd           | Version:  8
     \\/     M anipulation  |
\*---------------------------------------------------------------------------*/
FoamFile
{
    version     2.0;
    format      ascii;
    class       surfaceScalarField;
    location    "0.4";
    object      phi;
}
// * * * * * * * * * * * * * * * * * * * * * * * * * * * * * * * * * * * * * //

dimensions      [0 3 -1 0 0 0 0];

internalField   nonuniform List<scalar> 
760
(
4.56792e-08
-4.57632e-08
-8.81087e-08
1.33787e-07
-4.10536e-07
3.22427e-07
-8.61521e-07
4.50986e-07
-1.37517e-06
5.13654e-07
-1.89225e-06
5.17079e-07
-2.36229e-06
4.70037e-07
-2.74315e-06
3.80859e-07
-3.00034e-06
2.57198e-07
-3.10761e-06
1.07267e-07
-3.04902e-06
-5.85858e-08
-2.82231e-06
-2.26716e-07
-2.44232e-06
-3.79983e-07
-1.94359e-06
-4.98738e-07
-1.38042e-06
-5.63169e-07
-8.23522e-07
-5.569e-07
-3.51962e-07
-4.7156e-07
-4.02838e-08
-3.11678e-07
6.35931e-08
-1.03877e-07
6.35924e-08
-1.30192e-07
8.44301e-08
-6.54115e-07
6.5771e-07
-1.54222e-06
1.21053e-06
-2.68421e-06
1.59297e-06
-3.94826e-06
1.7777e-06
-5.20531e-06
1.77414e-06
-6.33908e-06
1.6038e-06
-7.24982e-06
1.2916e-06
-7.85643e-06
8.63806e-07
-8.09944e-06
3.50279e-07
-7.94595e-06
-2.12077e-07
-7.3958e-06
-7.76874e-07
-6.48753e-06
-1.28824e-06
-5.30187e-06
-1.6844e-06
-3.95998e-06
-1.90506e-06
-2.61433e-06
-1.90256e-06
-1.42999e-06
-1.6559e-06
-5.56203e-07
-1.18546e-06
-8.73319e-08
-5.72747e-07
-2.37396e-08
-3.39375e-07
4.23806e-07
-1.28327e-06
1.6016e-06
-2.70939e-06
2.63666e-06
-4.45314e-06
3.33672e-06
-6.33508e-06
3.65964e-06
-8.18068e-06
3.61974e-06
-9.8312e-06
3.25432e-06
-1.11494e-05
2.6098e-06
-1.20236e-05
1.73806e-06
-1.23728e-05
6.99422e-07
-1.21527e-05
-4.32178e-07
-1.1364e-05
-1.56562e-06
-1.00591e-05
-2.59309e-06
-8.34668e-06
-3.39682e-06
-6.38911e-06
-3.86263e-06
-4.39112e-06
-3.90055e-06
-2.5767e-06
-3.47032e-06
-1.15486e-06
-2.6073e-06
-2.77635e-07
-1.44997e-06
-3.01374e-07
-5.30166e-07
9.53972e-07
-1.87905e-06
2.95049e-06
-3.81808e-06
4.57568e-06
-6.11672e-06
5.63536e-06
-8.54981e-06
6.09273e-06
-1.09075e-05
5.9774e-06
-1.30017e-05
5.3486e-06
-1.46708e-05
4.27883e-06
-1.57826e-05
2.84986e-06
-1.62402e-05
1.15705e-06
-1.59889e-05
-6.83446e-07
-1.5025e-05
-2.52952e-06
-1.34045e-05
-4.2136e-06
-1.12495e-05
-5.55185e-06
-8.74822e-06
-6.3639e-06
-6.14539e-06
-6.50338e-06
-3.71919e-06
-5.89652e-06
-1.7456e-06
-4.5809e-06
-4.55585e-07
-2.73998e-06
-7.56957e-07
-7.01377e-07
1.65535e-06
-2.42994e-06
4.67905e-06
-4.85382e-06
6.99956e-06
-7.67268e-06
8.45423e-06
-1.06157e-05
9.03578e-06
-1.34429e-05
8.80452e-06
-1.59449e-05
7.8506e-06
-1.79434e-05
6.27742e-06
-1.92926e-05
4.19899e-06
-1.98822e-05
1.74664e-06
-1.96449e-05
-9.20735e-07
-1.85657e-05
-3.60866e-06
-1.66934e-05
-6.08593e-06
-1.41507e-05
-8.09454e-06
-1.11405e-05
-9.3741e-06
-7.94168e-06
-9.70222e-06
-4.88997e-06
-8.94824e-06
-2.34193e-06
-7.12893e-06
-6.26821e-07
-4.45509e-06
-1.38378e-06
-8.57806e-07
2.51315e-06
-2.94104e-06
6.76229e-06
-5.82103e-06
9.87955e-06
-9.12844e-06
1.17616e-05
-1.25485e-05
1.24558e-05
-1.58151e-05
1.20711e-05
-1.8704e-05
1.07395e-05
-2.1027e-05
8.60044e-06
-2.26288e-05
5.80074e-06
-2.33875e-05
2.50536e-06
-2.32203e-05
-1.08794e-06
-2.20933e-05
-4.73568e-06
-2.0036e-05
-8.14322e-06
-1.71583e-05
-1.09723e-05
-1.36653e-05
-1.2867e-05
-9.86423e-06
-1.35033e-05
-6.15272e-06
-1.26597e-05
-2.98394e-06
-1.02977e-05
-8.07892e-07
-6.63114e-06
-2.19167e-06
-1.0037e-06
3.51684e-06
-3.41905e-06
9.17764e-06
-6.72511e-06
1.31856e-05
-1.04858e-05
1.55223e-05
-1.43456e-05
1.63156e-05
-1.80179e-05
1.57434e-05
-2.12704e-05
1.3992e-05
-2.39119e-05
1.12419e-05
-2.57833e-05
7.67211e-06
-2.67534e-05
3.47552e-06
-2.67219e-05
-1.11946e-06
-2.56285e-05
-5.82904e-06
-2.34711e-05
-1.03007e-05
-2.03298e-05
-1.41136e-05
-1.63953e-05
-1.68015e-05
-1.1991e-05
-1.79076e-05
-7.57684e-06
-1.70739e-05
-3.71875e-06
-1.41558e-05
-1.01745e-06
-9.33244e-06
-3.20912e-06
-1.14217e-06
4.65901e-06
-3.86896e-06
1.19044e-05
-7.56719e-06
1.68838e-05
-1.17354e-05
1.96905e-05
-1.59819e-05
2.05621e-05
-2.0007e-05
1.97686e-05
-2.35798e-05
1.75647e-05
-2.65155e-05
1.41777e-05
-2.86596e-05
9.81619e-06
-2.98771e-05
4.693e-06
-3.00507e-05
-9.45808e-07
-2.90888e-05
-6.79095e-06
-2.69446e-05
-1.24449e-05
-2.36487e-05
-1.74094e-05
-1.93525e-05
-2.10978e-05
-1.43732e-05
-2.28868e-05
-9.22279e-06
-2.22244e-05
-4.59315e-06
-1.87854e-05
-1.27466e-06
-1.26509e-05
-4.48379e-06
-1.27623e-06
5.93525e-06
-4.29549e-06
1.49237e-05
-8.3452e-06
2.09336e-05
-1.28571e-05
2.42024e-05
-1.74092e-05
2.51142e-05
-2.16993e-05
2.40588e-05
-2.55107e-05
2.1376e-05
-2.86789e-05
1.73459e-05
-3.10664e-05
1.22038e-05
-3.25447e-05
6.17128e-06
-3.29857e-05
-5.0485e-07
-3.22652e-05
-7.51146e-06
-3.02815e-05
-1.44286e-05
-2.69933e-05
-2.06976e-05
-2.24793e-05
-2.56118e-05
-1.70126e-05
-2.83536e-05
-1.11292e-05
-2.81078e-05
-5.64919e-06
-2.42654e-05
-1.59927e-06
-1.67008e-05
-6.08306e-06
-1.41147e-06
7.34671e-06
-4.70839e-06
1.82206e-05
-9.05981e-06
2.5285e-05
-1.38252e-05
2.89678e-05
-1.85599e-05
2.98489e-05
-2.29745e-05
2.84733e-05
-2.68844e-05
2.5286e-05
-3.01645e-05
2.0626e-05
-3.27123e-05
1.47516e-05
-3.44218e-05
7.88078e-06
-3.51671e-05
2.40432e-07
-3.47982e-05
-7.8804e-06
-3.31538e-05
-1.60729e-05
-3.01002e-05
-2.37513e-05
-2.56024e-05
-3.01095e-05
-1.9833e-05
-3.41229e-05
-1.32968e-05
-3.46441e-05
-6.92033e-06
-3.06419e-05
-2.01279e-06
-2.16084e-05
-8.09585e-06
-1.56074e-06
8.90746e-06
-5.13138e-06
2.17912e-05
-9.72368e-06
2.98773e-05
-1.46151e-05
3.38592e-05
-1.93506e-05
3.45844e-05
-2.36763e-05
3.27991e-05
-2.74654e-05
2.90751e-05
-3.0656e-05
2.38166e-05
-3.3204e-05
1.72996e-05
-3.50485e-05
9.72528e-06
-3.60865e-05
1.27847e-06
-3.61588e-05
-7.80815e-06
-3.50511e-05
-1.71805e-05
-3.25243e-05
-2.62781e-05
-2.83887e-05
-3.4245e-05
-2.2642e-05
-3.98697e-05
-1.56653e-05
-4.16208e-05
-8.42531e-06
-3.78818e-05
-2.54058e-06
-2.74931e-05
-1.06364e-05
-1.75184e-06
1.06593e-05
-5.6144e-06
2.56538e-05
-1.03711e-05
3.4634e-05
-1.52063e-05
3.86944e-05
-1.96796e-05
3.90577e-05
-2.3608e-05
3.67275e-05
-2.69562e-05
3.24233e-05
-2.97557e-05
2.66161e-05
-3.20478e-05
1.95917e-05
-3.38428e-05
1.15202e-05
-3.5088e-05
2.52367e-06
-3.56423e-05
-7.25381e-06
-3.52608e-05
-1.7562e-05
-3.36038e-05
-2.79351e-05
-3.02968e-05
-3.75521e-05
-2.50798e-05
-4.50866e-05
-1.80765e-05
-4.86241e-05
-1.01559e-05
-4.58025e-05
-3.215e-06
-3.4434e-05
-1.38514e-05
-2.03988e-06
1.26992e-05
-6.24751e-06
2.98614e-05
-1.106e-05
3.94464e-05
-1.55701e-05
4.32045e-05
-1.94037e-05
4.28913e-05
-2.25049e-05
3.98287e-05
-2.49753e-05
3.48937e-05
-2.69727e-05
2.86134e-05
-2.86494e-05
2.12684e-05
-3.01115e-05
1.29823e-05
-3.13853e-05
3.79753e-06
-3.23837e-05
-6.25543e-06
-3.28709e-05
-1.70748e-05
-3.24393e-05
-2.83668e-05
-3.05293e-05
-3.9462e-05
-2.6555e-05
-4.90609e-05
-2.02173e-05
-5.49619e-05
-1.20516e-05
-5.39681e-05
-4.07881e-06
-4.24068e-05
-1.79302e-05
-2.52667e-06
1.52259e-05
-7.16896e-06
3.45037e-05
-1.18457e-05
4.41232e-05
-1.56106e-05
4.69694e-05
-1.82619e-05
4.55427e-05
-1.99581e-05
4.15248e-05
-2.09922e-05
3.59279e-05
-2.16783e-05
2.92995e-05
-2.22952e-05
2.18853e-05
-2.30575e-05
1.37447e-05
-2.40907e-05
4.8307e-06
-2.53964e-05
-4.94975e-06
-2.68022e-05
-1.5669e-05
-2.78994e-05
-2.72696e-05
-2.79968e-05
-3.93647e-05
-2.6167e-05
-5.08907e-05
-2.15288e-05
-5.96e-05
-1.3945e-05
-6.15519e-05
-5.18422e-06
-5.11676e-05
-2.31145e-05
-3.38439e-06
1.86102e-05
-8.53789e-06
3.96572e-05
-1.26721e-05
4.82574e-05
-1.49978e-05
4.9295e-05
-1.56887e-05
4.62336e-05
-1.52378e-05
4.10739e-05
-1.41824e-05
3.48725e-05
-1.30025e-05
2.81196e-05
-1.20939e-05
2.09766e-05
-1.17664e-05
1.34172e-05
-1.22412e-05
5.30552e-06
-1.36285e-05
-3.56252e-06
-1.58739e-05
-1.34235e-05
-1.8665e-05
-2.44785e-05
-2.13039e-05
-3.67257e-05
-2.26135e-05
-4.95811e-05
-2.10599e-05
-6.11537e-05
-1.54379e-05
-6.71739e-05
-6.56421e-06
-6.00413e-05
-2.96787e-05
-4.84874e-06
2.3459e-05
-1.03662e-05
4.51747e-05
-1.30373e-05
5.09286e-05
-1.276e-05
4.90176e-05
-1.04159e-05
4.38895e-05
-6.95434e-06
3.76124e-05
-3.16444e-06
3.10826e-05
3.50235e-07
2.46049e-05
3.13545e-06
1.81914e-05
4.84035e-06
1.17123e-05
5.1886e-06
4.95727e-06
3.97504e-06
-2.34896e-06
1.10305e-06
-1.05515e-05
-3.31557e-06
-2.00599e-05
-8.77112e-06
-3.12702e-05
-1.4087e-05
-4.42652e-05
-1.72235e-05
-5.80171e-05
-1.5619e-05
-6.87785e-05
-8.10181e-06
-6.75585e-05
-3.77805e-05
-7.04765e-06
3.05066e-05
-1.18875e-05
5.00145e-05
-1.11055e-05
5.01466e-05
-6.40575e-06
4.43179e-05
2.5161e-07
3.72321e-05
7.47719e-06
3.03868e-05
1.43632e-05
2.41966e-05
2.03297e-05
1.86384e-05
2.49909e-05
1.35303e-05
2.80586e-05
8.64464e-06
2.92812e-05
3.73466e-06
2.84136e-05
-1.48143e-06
2.52226e-05
-7.36047e-06
1.95508e-05
-1.43881e-05
1.15035e-05
-2.32228e-05
1.83973e-06
-3.46015e-05
-7.41867e-06
-4.87587e-05
-1.25123e-05
-6.36849e-05
-9.16155e-06
-7.09092e-05
-4.6942e-05
-9.24842e-06
3.9755e-05
-9.59193e-06
5.0358e-05
-1.60642e-06
4.2161e-05
9.70461e-06
3.30069e-05
2.149e-05
2.54468e-05
3.24211e-05
1.94558e-05
4.18858e-05
1.47318e-05
4.96093e-05
1.09149e-05
5.54581e-05
7.68148e-06
5.93302e-05
4.77254e-06
6.1093e-05
1.97179e-06
6.05447e-05
-9.33098e-07
5.7385e-05
-4.20077e-06
5.12113e-05
-8.21438e-06
4.15949e-05
-1.36065e-05
2.83979e-05
-2.14044e-05
1.26214e-05
-3.29823e-05
-1.99893e-06
-4.90646e-05
-7.77762e-06
-6.51305e-05
-5.47197e-05
-5.18898e-06
4.4944e-05
8.91939e-06
3.62497e-05
2.84191e-05
2.26613e-05
4.64483e-05
1.49777e-05
6.16013e-05
1.02938e-05
7.38775e-05
7.17951e-06
8.35638e-05
5.04555e-06
9.09632e-05
3.51553e-06
9.63084e-05
2.3363e-06
9.9734e-05
1.34691e-06
0.000101266
4.39732e-07
0.000100811
-4.77867e-07
9.81107e-05
-1.5006e-06
9.26835e-05
-2.78725e-06
8.37145e-05
-4.63742e-06
7.00058e-05
-7.69571e-06
5.03745e-05
-1.3351e-05
2.54662e-05
-2.41562e-05
2.71823e-06
-4.23826e-05
-5.20014e-05
4.4944e-05
8.11937e-05
0.000103855
0.000118833
0.000129126
0.000136306
0.000141352
0.000144867
0.000147203
0.00014855
0.00014899
0.000148512
0.000147012
0.000144224
0.000139587
0.000131891
0.00011854
9.4384e-05
5.20014e-05
)
;

boundaryField
{
    movingWall
    {
        type            calculated;
        value           uniform 0;
    }
    fixedWalls
    {
        type            calculated;
        value           uniform 0;
    }
    frontAndBack
    {
        type            empty;
        value           nonuniform List<scalar> 0();
    }
}


// ************************************************************************* //
