/*--------------------------------*- C++ -*----------------------------------*\
  =========                 |
  \\      /  F ield         | OpenFOAM: The Open Source CFD Toolbox
   \\    /   O peration     | Website:  https://openfoam.org
    \\  /    A nd           | Version:  8
     \\/     M anipulation  |
\*---------------------------------------------------------------------------*/
FoamFile
{
    version     2.0;
    format      ascii;
    class       volVectorField;
    location    "0.4";
    object      U;
}
// * * * * * * * * * * * * * * * * * * * * * * * * * * * * * * * * * * * * * //

dimensions      [0 1 -1 0 0 0 0];

internalField   nonuniform List<vector> 
400
(
(0.000845036 -0.000842741 0)
(0.000338455 0.000444486 0)
(-0.00435387 0.00198084 0)
(-0.0123363 0.00302976 0)
(-0.0222389 0.00354862 0)
(-0.0327807 0.0036155 0)
(-0.0428548 0.00331412 0)
(-0.0515321 0.00271238 0)
(-0.0580439 0.00186355 0)
(-0.0617762 0.000820059 0)
(-0.0622965 -0.00035026 0)
(-0.0594101 -0.00155227 0)
(-0.0532328 -0.00265944 0)
(-0.0442551 -0.0035204 0)
(-0.0333743 -0.00397646 0)
(-0.0218666 -0.00388965 0)
(-0.0112754 -0.00317967 0)
(-0.00320058 -0.00186681 0)
(0.00102777 -0.000176324 0)
(0.00102154 0.000992108 0)
(-0.000379095 -0.000422234 0)
(-0.00600015 0.00598934 0)
(-0.0204423 0.0126791 0)
(-0.0413874 0.017348 0)
(-0.0660778 0.0196538 0)
(-0.0918721 0.0197587 0)
(-0.116297 0.0179506 0)
(-0.137173 0.0145305 0)
(-0.152678 0.00979393 0)
(-0.16139 0.00406643 0)
(-0.162359 -0.00224544 0)
(-0.155227 -0.00861744 0)
(-0.140358 -0.0144032 0)
(-0.118942 -0.018874 0)
(-0.0930234 -0.0213065 0)
(-0.065403 -0.0211173 0)
(-0.0393533 -0.0180331 0)
(-0.0181345 -0.0122785 0)
(-0.00450486 -0.00489198 0)
(5.57067e-05 0.00115105 0)
(-0.00202495 0.00426399 0)
(-0.0135387 0.0206176 0)
(-0.0378144 0.0358272 0)
(-0.0705077 0.0463304 0)
(-0.107658 0.0513513 0)
(-0.145751 0.051088 0)
(-0.18144 0.0461002 0)
(-0.211737 0.0370726 0)
(-0.234129 0.0247548 0)
(-0.246663 0.0100109 0)
(-0.248054 -0.00609477 0)
(-0.237831 -0.0222386 0)
(-0.216502 -0.0368436 0)
(-0.185671 -0.0481803 0)
(-0.148081 -0.0545735 0)
(-0.107487 -0.0547125 0)
(-0.0682835 -0.0480363 0)
(-0.0349002 -0.0351344 0)
(-0.0114747 -0.018235 0)
(-0.00137657 -0.00246896 0)
(-0.00349061 0.0130209 0)
(-0.020615 0.0437024 0)
(-0.0543886 0.0697391 0)
(-0.0981137 0.0871255 0)
(-0.146544 0.0949564 0)
(-0.195436 0.0936024 0)
(-0.240827 0.083988 0)
(-0.279188 0.0672766 0)
(-0.307556 0.044787 0)
(-0.323616 0.0180612 0)
(-0.325814 -0.0110161 0)
(-0.313526 -0.0401335 0)
(-0.287242 -0.0665687 0)
(-0.248725 -0.087352 0)
(-0.201104 -0.0996035 0)
(-0.148789 -0.101042 0)
(-0.0971039 -0.0906178 0)
(-0.0516503 -0.0691457 0)
(-0.0182419 -0.0399141 0)
(-0.0026549 -0.00981059 0)
(-0.0047635 0.0253961 0)
(-0.0270677 0.0746009 0)
(-0.0698274 0.113526 0)
(-0.123961 0.138487 0)
(-0.182894 0.148923 0)
(-0.24171 0.145649 0)
(-0.295971 0.130109 0)
(-0.341783 0.104034 0)
(-0.375888 0.0693744 0)
(-0.395702 0.028399 0)
(-0.399414 -0.0161356 0)
(-0.386156 -0.0608615 0)
(-0.356214 -0.101803 0)
(-0.311264 -0.134581 0)
(-0.254557 -0.154861 0)
(-0.190972 -0.159067 0)
(-0.126723 -0.14529 0)
(-0.0687547 -0.114209 0)
(-0.0249301 -0.0698524 0)
(-0.00381563 -0.0206052 0)
(-0.00590387 0.0410378 0)
(-0.0330059 0.112828 0)
(-0.0842108 0.166703 0)
(-0.148139 0.199906 0)
(-0.216912 0.212715 0)
(-0.284994 0.206729 0)
(-0.347582 0.184112 0)
(-0.400555 0.147265 0)
(-0.44048 0.0987983 0)
(-0.464575 0.0416902 0)
(-0.47076 -0.0204649 0)
(-0.457813 -0.083262 0)
(-0.42562 -0.141434 0)
(-0.375497 -0.189045 0)
(-0.310544 -0.220013 0)
(-0.2359 -0.229012 0)
(-0.158636 -0.212714 0)
(-0.0872465 -0.171094 0)
(-0.0320867 -0.108528 0)
(-0.0050139 -0.0348631 0)
(-0.00696251 0.0596933 0)
(-0.0385544 0.15792 0)
(-0.0976711 0.228722 0)
(-0.170726 0.270783 0)
(-0.248592 0.285728 0)
(-0.325197 0.276319 0)
(-0.395504 0.245675 0)
(-0.455312 0.19697 0)
(-0.501146 0.133467 0)
(-0.530111 0.0587788 0)
(-0.539869 -0.0227842 0)
(-0.528753 -0.105896 0)
(-0.496043 -0.184046 0)
(-0.442394 -0.249646 0)
(-0.370397 -0.294547 0)
(-0.285134 -0.311101 0)
(-0.194382 -0.293768 0)
(-0.108334 -0.241001 0)
(-0.0403676 -0.156947 0)
(-0.00642424 -0.0529602 0)
(-0.00797689 0.0811835 0)
(-0.0438141 0.209445 0)
(-0.110299 0.29895 0)
(-0.191667 0.350335 0)
(-0.277607 0.367105 0)
(-0.361634 0.353616 0)
(-0.438651 0.314204 0)
(-0.504572 0.252919 0)
(-0.556068 0.17365 0)
(-0.590277 0.0805007 0)
(-0.604669 -0.0217129 0)
(-0.597096 -0.126974 0)
(-0.566058 -0.227702 0)
(-0.511216 -0.314665 0)
(-0.434184 -0.377372 0)
(-0.339475 -0.405186 0)
(-0.235186 -0.389321 0)
(-0.133178 -0.325497 0)
(-0.0504571 -0.21669 0)
(-0.00823176 -0.075658 0)
(-0.00898405 0.105386 0)
(-0.0488896 0.267004 0)
(-0.122169 0.376655 0)
(-0.210795 0.437499 0)
(-0.303319 0.455561 0)
(-0.393019 0.437285 0)
(-0.474983 0.388532 0)
(-0.545518 0.314342 0)
(-0.601709 0.219173 0)
(-0.640962 0.107425 0)
(-0.660728 -0.0158804 0)
(-0.658443 -0.144399 0)
(-0.631722 -0.269824 0)
(-0.578913 -0.381476 0)
(-0.500084 -0.46639 0)
(-0.398422 -0.510285 0)
(-0.281584 -0.499843 0)
(-0.162732 -0.426305 0)
(-0.0630486 -0.289862 0)
(-0.0106449 -0.10411 0)
(-0.0100509 0.132252 0)
(-0.0539764 0.330245 0)
(-0.133461 0.460945 0)
(-0.227938 0.530781 0)
(-0.324856 0.549123 0)
(-0.41751 0.525128 0)
(-0.501526 0.46654 0)
(-0.573981 0.379515 0)
(-0.632745 0.269011 0)
(-0.675841 0.139489 0)
(-0.701005 -0.0042095 0)
(-0.705465 -0.155911 0)
(-0.686001 -0.307139 0)
(-0.639417 -0.446251 0)
(-0.56363 -0.557971 0)
(-0.459492 -0.623899 0)
(-0.332976 -0.624745 0)
(-0.197562 -0.544864 0)
(-0.0788566 -0.378947 0)
(-0.0139257 -0.139885 0)
(-0.0113283 0.161901 0)
(-0.0595118 0.398949 0)
(-0.144653 0.550726 0)
(-0.243092 0.628061 0)
(-0.341222 0.644832 0)
(-0.432763 0.613704 0)
(-0.514383 0.544732 0)
(-0.584433 0.44532 0)
(-0.642045 0.320838 0)
(-0.686317 0.175546 0)
(-0.715706 0.0136703 0)
(-0.727628 -0.159405 0)
(-0.71829 -0.335815 0)
(-0.682937 -0.503799 0)
(-0.616839 -0.64643 0)
(-0.517349 -0.741171 0)
(-0.386958 -0.761434 0)
(-0.237561 -0.6816 0)
(-0.0986323 -0.486544 0)
(-0.0184402 -0.18502 0)
(-0.0131449 0.19483 0)
(-0.0664028 0.473218 0)
(-0.156766 0.644666 0)
(-0.256553 0.726346 0)
(-0.351295 0.738363 0)
(-0.435834 0.697914 0)
(-0.50862 0.617814 0)
(-0.569914 0.506813 0)
(-0.620673 0.370578 0)
(-0.661586 0.212892 0)
(-0.692366 0.0369194 0)
(-0.711176 -0.153416 0)
(-0.714186 -0.351821 0)
(-0.695419 -0.547655 0)
(-0.647335 -0.723661 0)
(-0.562733 -0.853985 0)
(-0.438373 -0.904041 0)
(-0.281445 -0.834798 0)
(-0.123152 -0.614893 0)
(-0.0247411 -0.242147 0)
(-0.0161742 0.232341 0)
(-0.0763535 0.553748 0)
(-0.171549 0.741039 0)
(-0.268798 0.821322 0)
(-0.353425 0.823501 0)
(-0.422644 0.770511 0)
(-0.477742 0.678293 0)
(-0.521665 0.556905 0)
(-0.557749 0.412101 0)
(-0.588752 0.246897 0)
(-0.616152 0.0630049 0)
(-0.639501 -0.137726 0)
(-0.655714 -0.351571 0)
(-0.658401 -0.57055 0)
(-0.637675 -0.779119 0)
(-0.581274 -0.950185 0)
(-0.477957 -1.04189 0)
(-0.325843 -0.998879 0)
(-0.153097 -0.765 0)
(-0.0336875 -0.314692 0)
(-0.0217188 0.277286 0)
(-0.0922648 0.642071 0)
(-0.19134 0.837183 0)
(-0.2796 0.90648 0)
(-0.344024 0.891322 0)
(-0.386378 0.821545 0)
(-0.41223 0.716213 0)
(-0.428005 0.586303 0)
(-0.439816 0.437248 0)
(-0.452725 0.270972 0)
(-0.470261 0.0874529 0)
(-0.493882 -0.113927 0)
(-0.522139 -0.332802 0)
(-0.549496 -0.565394 0)
(-0.565095 -0.800491 0)
(-0.552297 -1.01331 0)
(-0.490463 -1.15788 0)
(-0.363636 -1.16193 0)
(-0.188548 -0.934938 0)
(-0.0465558 -0.407097 0)
(-0.0321041 0.335259 0)
(-0.118415 0.740334 0)
(-0.217699 0.928002 0)
(-0.285105 0.971446 0)
(-0.313847 0.929026 0)
(-0.313731 0.837878 0)
(-0.296252 0.719271 0)
(-0.27181 0.584048 0)
(-0.249211 0.436551 0)
(-0.235521 0.277216 0)
(-0.236093 0.104183 0)
(-0.254395 -0.0856439 0)
(-0.291304 -0.295503 0)
(-0.343655 -0.526854 0)
(-0.40198 -0.775427 0)
(-0.447818 -1.02355 0)
(-0.452067 -1.22756 0)
(-0.380817 -1.30256 0)
(-0.227264 -1.11666 0)
(-0.0648174 -0.524712 0)
(-0.0507497 0.4165 0)
(-0.158983 0.849421 0)
(-0.246173 1.00226 0)
(-0.269993 0.998981 0)
(-0.239631 0.91849 0)
(-0.177398 0.803199 0)
(-0.101614 0.673883 0)
(-0.0260672 0.539173 0)
(0.0388657 0.401112 0)
(0.0853028 0.258202 0)
(0.107067 0.106869 0)
(0.0992903 -0.057945 0)
(0.0586875 -0.242454 0)
(-0.0152042 -0.453231 0)
(-0.117274 -0.694475 0)
(-0.231979 -0.960558 0)
(-0.326794 -1.21972 0)
(-0.350629 -1.38667 0)
(-0.259711 -1.29103 0)
(-0.0883842 -0.673633 0)
(-0.0798966 0.539839 0)
(-0.210034 0.962027 0)
(-0.250097 1.03283 0)
(-0.188791 0.958724 0)
(-0.0676656 0.834256 0)
(0.0765148 0.698969 0)
(0.221054 0.567717 0)
(0.351845 0.443887 0)
(0.459739 0.325873 0)
(0.538339 0.209999 0)
(0.582464 0.0914718 0)
(0.587233 -0.0356271 0)
(0.547765 -0.178849 0)
(0.459675 -0.347995 0)
(0.321219 -0.554733 0)
(0.13889 -0.808114 0)
(-0.0618281 -1.09905 0)
(-0.223644 -1.36415 0)
(-0.257824 -1.41948 0)
(-0.109207 -0.860872 0)
(-0.10661 0.730806 0)
(-0.22936 1.04003 0)
(-0.13724 0.958065 0)
(0.0726248 0.800771 0)
(0.312745 0.645754 0)
(0.544086 0.510434 0)
(0.750064 0.396471 0)
(0.922986 0.299739 0)
(1.05934 0.214753 0)
(1.15713 0.136281 0)
(1.21427 0.0593981 0)
(1.22756 -0.0211168 0)
(1.19211 -0.111784 0)
(1.10079 -0.222041 0)
(0.944676 -0.366278 0)
(0.71635 -0.564748 0)
(0.419351 -0.836637 0)
(0.0890575 -1.16899 0)
(-0.15167 -1.42227 0)
(-0.0907522 -1.07118 0)
(-0.0111855 0.914934 0)
(-0.00937898 0.954661 0)
(0.353858 0.697689 0)
(0.755238 0.499133 0)
(1.09276 0.360652 0)
(1.36622 0.261765 0)
(1.5847 0.189951 0)
(1.75468 0.135954 0)
(1.88148 0.0929091 0)
(1.96888 0.0560031 0)
(2.01858 0.0216929 0)
(2.03003 -0.0131254 0)
(1.99988 -0.0520851 0)
(1.92106 -0.100691 0)
(1.78105 -0.168969 0)
(1.5602 -0.276259 0)
(1.22956 -0.457329 0)
(0.758356 -0.756693 0)
(0.246993 -1.14527 0)
(0.115313 -1.12918 0)
(1.01245 0.496382 0)
(1.30903 0.438554 0)
(1.83513 0.273427 0)
(2.23944 0.167566 0)
(2.49493 0.105361 0)
(2.6646 0.0674038 0)
(2.78367 0.0436275 0)
(2.86767 0.0281407 0)
(2.92523 0.0173044 0)
(2.96151 0.00894577 0)
(2.97918 0.00173988 0)
(2.97894 -0.00524202 0)
(2.95969 -0.012969 0)
(2.91794 -0.0228466 0)
(2.84593 -0.0377347 0)
(2.72738 -0.0642803 0)
(2.52436 -0.118257 0)
(2.14301 -0.232648 0)
(1.53944 -0.439655 0)
(1.12373 -0.534378 0)
)
;

boundaryField
{
    movingWall
    {
        type            fixedValue;
        value           uniform (3.5 0 0);
    }
    fixedWalls
    {
        type            noSlip;
    }
    frontAndBack
    {
        type            empty;
    }
}


// ************************************************************************* //
