/*--------------------------------*- C++ -*----------------------------------*\
  =========                 |
  \\      /  F ield         | OpenFOAM: The Open Source CFD Toolbox
   \\    /   O peration     | Website:  https://openfoam.org
    \\  /    A nd           | Version:  8
     \\/     M anipulation  |
\*---------------------------------------------------------------------------*/
FoamFile
{
    version     2.0;
    format      ascii;
    class       volVectorField;
    location    "0.3";
    object      U;
}
// * * * * * * * * * * * * * * * * * * * * * * * * * * * * * * * * * * * * * //

dimensions      [0 1 -1 0 0 0 0];

internalField   nonuniform List<vector> 
400
(
(0.000683901 -0.000679405 0)
(0.000299684 0.000346407 0)
(-0.00344073 0.00158526 0)
(-0.00984467 0.00243847 0)
(-0.0178137 0.00286139 0)
(-0.0263005 0.00291131 0)
(-0.0343921 0.0026561 0)
(-0.0413264 0.00215548 0)
(-0.0464854 0.00145958 0)
(-0.0493928 0.000617172 0)
(-0.0497301 -0.000313706 0)
(-0.0473723 -0.00125776 0)
(-0.0424344 -0.00211946 0)
(-0.0353128 -0.00278679 0)
(-0.0267069 -0.00314221 0)
(-0.0176004 -0.00308102 0)
(-0.00918534 -0.00253714 0)
(-0.00271465 -0.00151553 0)
(0.000736253 -0.000176918 0)
(0.000796229 0.000775065 0)
(-0.000282058 -0.000368507 0)
(-0.00472853 0.00474831 0)
(-0.0162492 0.0101418 0)
(-0.033031 0.0139333 0)
(-0.0528599 0.0158087 0)
(-0.0735806 0.0158777 0)
(-0.0931653 0.0143747 0)
(-0.109839 0.0115628 0)
(-0.12214 0.00770911 0)
(-0.12896 0.00310145 0)
(-0.12959 -0.00192058 0)
(-0.123801 -0.00694225 0)
(-0.111922 -0.0114705 0)
(-0.094914 -0.0149594 0)
(-0.0743766 -0.0168681 0)
(-0.0524836 -0.0167518 0)
(-0.031774 -0.0143841 0)
(-0.0148011 -0.00990027 0)
(-0.00378402 -0.00405754 0)
(-6.22601e-06 0.00083166 0)
(-0.00158372 0.00332443 0)
(-0.0107142 0.0163851 0)
(-0.0300836 0.0286492 0)
(-0.0562682 0.0371743 0)
(-0.0860827 0.0412552 0)
(-0.116655 0.0410101 0)
(-0.145248 0.0368973 0)
(-0.169429 0.0295139 0)
(-0.187189 0.0195255 0)
(-0.197001 0.00768174 0)
(-0.197905 -0.00513628 0)
(-0.189598 -0.0178805 0)
(-0.17254 -0.0293412 0)
(-0.14803 -0.0382141 0)
(-0.118225 -0.0432405 0)
(-0.0860472 -0.0434213 0)
(-0.0549061 -0.0382943 0)
(-0.0282595 -0.0282403 0)
(-0.00941201 -0.0148893 0)
(-0.00117281 -0.00218712 0)
(-0.00274043 0.0102437 0)
(-0.016336 0.0347615 0)
(-0.0433057 0.0557673 0)
(-0.0783458 0.0698837 0)
(-0.117223 0.076248 0)
(-0.156459 0.0750959 0)
(-0.192804 0.0671899 0)
(-0.223387 0.053545 0)
(-0.245838 0.0353262 0)
(-0.258354 0.0138634 0)
(-0.259777 -0.00928594 0)
(-0.249706 -0.0322881 0)
(-0.228611 -0.0530477 0)
(-0.197943 -0.0693191 0)
(-0.160175 -0.0789363 0)
(-0.118744 -0.080167 0)
(-0.0777716 -0.0721649 0)
(-0.0416034 -0.0554457 0)
(-0.0148412 -0.0323888 0)
(-0.00221092 -0.00821183 0)
(-0.00374729 0.0200348 0)
(-0.0214887 0.0593894 0)
(-0.0556992 0.0908217 0)
(-0.0991524 0.111101 0)
(-0.146518 0.119576 0)
(-0.193743 0.11682 0)
(-0.237173 0.104032 0)
(-0.273632 0.0827292 0)
(-0.300515 0.0546355 0)
(-0.315822 0.0217107 0)
(-0.318216 -0.0137612 0)
(-0.307138 -0.0491004 0)
(-0.282942 -0.081239 0)
(-0.247048 -0.106862 0)
(-0.202057 -0.122714 0)
(-0.151776 -0.1261 0)
(-0.100999 -0.115518 0)
(-0.0550708 -0.0913425 0)
(-0.0201501 -0.056429 0)
(-0.00314762 -0.0170056 0)
(-0.00465993 0.0324383 0)
(-0.0262914 0.0899364 0)
(-0.067395 0.133497 0)
(-0.118859 0.160487 0)
(-0.174252 0.170856 0)
(-0.228977 0.165798 0)
(-0.279054 0.147121 0)
(-0.32111 0.116942 0)
(-0.352405 0.0775812 0)
(-0.370799 0.0316318 0)
(-0.374779 -0.01791 0)
(-0.36356 -0.0675223 0)
(-0.337239 -0.11313 0)
(-0.297016 -0.150239 0)
(-0.245425 -0.174299 0)
(-0.186495 -0.181324 0)
(-0.12566 -0.16876 0)
(-0.0694035 -0.136415 0)
(-0.0257393 -0.0872932 0)
(-0.00409959 -0.0285414 0)
(-0.00552764 0.0472935 0)
(-0.0308798 0.12612 0)
(-0.0785709 0.183455 0)
(-0.137631 0.217653 0)
(-0.200543 0.229669 0)
(-0.262222 0.221633 0)
(-0.318459 0.196175 0)
(-0.365802 0.156109 0)
(-0.401483 0.104375 0)
(-0.423301 0.0441518 0)
(-0.42958 -0.0209283 0)
(-0.419245 -0.0865773 0)
(-0.391997 -0.147741 0)
(-0.348602 -0.198676 0)
(-0.291271 -0.233305 0)
(-0.224035 -0.245953 0)
(-0.152862 -0.232451 0)
(-0.0854702 -0.191445 0)
(-0.0320851 -0.125641 0)
(-0.00519559 -0.043062 0)
(-0.00638973 0.064519 0)
(-0.0353713 0.167721 0)
(-0.089371 0.240331 0)
(-0.155522 0.282088 0)
(-0.225243 0.295404 0)
(-0.293048 0.28371 0)
(-0.354641 0.250694 0)
(-0.406653 0.199981 0)
(-0.446443 0.13512 0)
(-0.471863 0.0597886 0)
(-0.481136 -0.0218938 0)
(-0.47287 -0.105035 0)
(-0.446235 -0.183721 0)
(-0.401321 -0.250958 0)
(-0.339682 -0.298945 0)
(-0.264993 -0.319844 0)
(-0.18349 -0.307144 0)
(-0.104104 -0.257476 0)
(-0.0396793 -0.17254 0)
(-0.00656969 -0.0610902 0)
(-0.0072853 0.0840997 0)
(-0.0398841 0.214577 0)
(-0.0999157 0.303703 0)
(-0.172471 0.353078 0)
(-0.247915 0.367115 0)
(-0.320497 0.350992 0)
(-0.386044 0.309734 0)
(-0.441504 0.24789 0)
(-0.484586 0.169594 0)
(-0.513386 0.0788807 0)
(-0.52615 -0.0198642 0)
(-0.521209 -0.12141 0)
(-0.497112 -0.219228 0)
(-0.453022 -0.305206 0)
(-0.389416 -0.369712 0)
(-0.309067 -0.402271 0)
(-0.217963 -0.393127 0)
(-0.125998 -0.335668 0)
(-0.0490179 -0.229435 0)
(-0.00837065 -0.0834306 0)
(-0.00827696 0.106099 0)
(-0.0446023 0.266587 0)
(-0.110385 0.373033 0)
(-0.188367 0.429553 0)
(-0.267858 0.443297 0)
(-0.343069 0.421749 0)
(-0.410256 0.371599 0)
(-0.467011 0.298444 0)
(-0.511706 0.206956 0)
(-0.542956 0.101341 0)
(-0.559254 -0.0140485 0)
(-0.558789 -0.134022 0)
(-0.539484 -0.251845 0)
(-0.499364 -0.358621 0)
(-0.437354 -0.442977 0)
(-0.354589 -0.491435 0)
(-0.255932 -0.489956 0)
(-0.151592 -0.427003 0)
(-0.0606172 -0.29805 0)
(-0.0107849 -0.111184 0)
(-0.0094932 0.130728 0)
(-0.0498894 0.323766 0)
(-0.12115 0.447606 0)
(-0.203136 0.50991 0)
(-0.284134 0.521613 0)
(-0.35868 0.493227 0)
(-0.423921 0.433496 0)
(-0.478534 0.349182 0)
(-0.521958 0.245418 0)
(-0.553694 0.126349 0)
(-0.572797 -0.00406612 0)
(-0.577569 -0.141168 0)
(-0.565448 -0.278604 0)
(-0.533228 -0.407296 0)
(-0.477844 -0.514561 0)
(-0.397901 -0.583831 0)
(-0.295847 -0.59579 0)
(-0.180911 -0.531789 0)
(-0.0750414 -0.380219 0)
(-0.0140763 -0.145794 0)
(-0.0112033 0.158509 0)
(-0.0564617 0.386358 0)
(-0.132938 0.526449 0)
(-0.216791 0.591748 0)
(-0.295471 0.598534 0)
(-0.364483 0.561277 0)
(-0.42253 0.491176 0)
(-0.469951 0.396234 0)
(-0.507728 0.281909 0)
(-0.536653 0.15202 0)
(-0.556735 0.00972335 0)
(-0.566764 -0.14141 0)
(-0.564006 -0.296158 0)
(-0.544174 -0.446172 0)
(-0.501957 -0.578356 0)
(-0.432543 -0.673535 0)
(-0.334283 -0.706472 0)
(-0.213243 -0.648886 0)
(-0.0929247 -0.477588 0)
(-0.0186525 -0.189148 0)
(-0.0139499 0.190604 0)
(-0.0656335 0.455012 0)
(-0.146923 0.60812 0)
(-0.22924 0.671423 0)
(-0.299833 0.668846 0)
(-0.356309 0.619906 0)
(-0.399888 0.538585 0)
(-0.433249 0.434046 0)
(-0.459389 0.311839 0)
(-0.480761 0.175133 0)
(-0.498697 0.0258888 0)
(-0.512908 -0.133968 0)
(-0.521002 -0.301164 0)
(-0.518077 -0.469245 0)
(-0.496756 -0.62616 0)
(-0.448227 -0.751481 0)
(-0.364917 -0.814331 0)
(-0.246535 -0.774492 0)
(-0.114939 -0.591059 0)
(-0.0251704 -0.243764 0)
(-0.0187741 0.229388 0)
(-0.0796044 0.530876 0)
(-0.164522 0.690148 0)
(-0.239445 0.743226 0)
(-0.293153 0.724908 0)
(-0.327301 0.660801 0)
(-0.346888 0.567637 0)
(-0.357615 0.455346 0)
(-0.364799 0.329118 0)
(-0.372718 0.191104 0)
(-0.384207 0.0417306 0)
(-0.400268 -0.119138 0)
(-0.419468 -0.29088 0)
(-0.437159 -0.470174 0)
(-0.444737 -0.64796 0)
(-0.429625 -0.805025 0)
(-0.376958 -0.906822 0)
(-0.276167 -0.900295 0)
(-0.141517 -0.719658 0)
(-0.0346564 -0.313039 0)
(-0.0275106 0.279357 0)
(-0.101517 0.615257 0)
(-0.186127 0.767654 0)
(-0.242917 0.797928 0)
(-0.266295 0.755688 0)
(-0.264966 0.672964 0)
(-0.249078 0.568374 0)
(-0.227695 0.451603 0)
(-0.208307 0.326728 0)
(-0.196701 0.19444 0)
(-0.197007 0.0534483 0)
(-0.211592 -0.0985658 0)
(-0.240541 -0.26395 0)
(-0.280614 -0.443446 0)
(-0.323678 -0.633052 0)
(-0.355036 -0.818315 0)
(-0.352748 -0.965423 0)
(-0.292475 -1.01093 0)
(-0.171697 -0.858276 0)
(-0.0484242 -0.401334 0)
(-0.0427665 0.34854 0)
(-0.134052 0.707851 0)
(-0.20666 0.830156 0)
(-0.225378 0.820348 0)
(-0.198595 0.745749 0)
(-0.145693 0.642952 0)
(-0.0825299 0.53001 0)
(-0.0208513 0.414478 0)
(0.0307684 0.298216 0)
(0.0660968 0.180035 0)
(0.0805377 0.0569791 0)
(0.0707831 -0.0750987 0)
(0.0350246 -0.221141 0)
(-0.0260584 -0.386046 0)
(-0.107207 -0.572296 0)
(-0.195128 -0.774112 0)
(-0.264137 -0.965484 0)
(-0.275725 -1.0809 0)
(-0.199405 -0.99378 0)
(-0.0668928 -0.514068 0)
(-0.0658498 0.4515 0)
(-0.172578 0.800876 0)
(-0.202501 0.853784 0)
(-0.148376 0.784712 0)
(-0.0458797 0.67417 0)
(0.0738254 0.556134 0)
(0.191605 0.443318 0)
(0.295864 0.338519 0)
(0.379425 0.240272 0)
(0.437559 0.145359 0)
(0.466651 0.0496293 0)
(0.463431 -0.0519648 0)
(0.42477 -0.165687 0)
(0.348174 -0.299294 0)
(0.233625 -0.461361 0)
(0.0879356 -0.657334 0)
(-0.0673762 -0.877529 0)
(-0.187009 -1.07095 0)
(-0.204284 -1.09811 0)
(-0.0848184 -0.658318 0)
(-0.0848893 0.606736 0)
(-0.180712 0.860751 0)
(-0.098173 0.787544 0)
(0.0789575 0.651063 0)
(0.277811 0.517602 0)
(0.466248 0.402311 0)
(0.630914 0.306408 0)
(0.766083 0.22613 0)
(0.869602 0.156646 0)
(0.940557 0.0934007 0)
(0.977871 0.0321134 0)
(0.979526 -0.0317387 0)
(0.942071 -0.103727 0)
(0.86037 -0.191636 0)
(0.728162 -0.306757 0)
(0.541074 -0.463882 0)
(0.304053 -0.675104 0)
(0.047567 -0.926668 0)
(-0.131419 -1.11027 0)
(-0.0750164 -0.8265 0)
(-0.00075032 0.747094 0)
(0.0085262 0.780952 0)
(0.31081 0.568184 0)
(0.640658 0.401483 0)
(0.91438 0.285352 0)
(1.13267 0.203333 0)
(1.30381 0.14457 0)
(1.434 0.101001 0)
(1.52836 0.0667626 0)
(1.5906 0.0377844 0)
(1.62253 0.0110631 0)
(1.62397 -0.0160671 0)
(1.59236 -0.046755 0)
(1.52198 -0.0857307 0)
(1.40278 -0.14132 0)
(1.21945 -0.22876 0)
(0.950085 -0.373769 0)
(0.573642 -0.607631 0)
(0.174133 -0.906216 0)
(0.0803987 -0.886126 0)
(0.817623 0.40032 0)
(1.06368 0.352923 0)
(1.49334 0.217755 0)
(1.81898 0.131322 0)
(2.02143 0.0810162 0)
(2.15363 0.0508072 0)
(2.24465 0.0322097 0)
(2.30747 0.0202888 0)
(2.34936 0.0120675 0)
(2.37466 0.00580036 0)
(2.38558 0.00042497 0)
(2.38273 -0.00482173 0)
(2.36516 -0.0107669 0)
(2.32984 -0.0186633 0)
(2.27011 -0.0310291 0)
(2.1724 -0.0534769 0)
(2.00525 -0.0985641 0)
(1.69446 -0.191317 0)
(1.21341 -0.354376 0)
(0.889285 -0.425471 0)
)
;

boundaryField
{
    movingWall
    {
        type            fixedValue;
        value           uniform (2.8 0 0);
    }
    fixedWalls
    {
        type            noSlip;
    }
    frontAndBack
    {
        type            empty;
    }
}


// ************************************************************************* //
