/*--------------------------------*- C++ -*----------------------------------*\
  =========                 |
  \\      /  F ield         | OpenFOAM: The Open Source CFD Toolbox
   \\    /   O peration     | Website:  https://openfoam.org
    \\  /    A nd           | Version:  8
     \\/     M anipulation  |
\*---------------------------------------------------------------------------*/
FoamFile
{
    version     2.0;
    format      ascii;
    class       volScalarField;
    location    "0.2";
    object      p;
}
// * * * * * * * * * * * * * * * * * * * * * * * * * * * * * * * * * * * * * //

dimensions      [0 2 -2 0 0 0 0];

internalField   nonuniform List<scalar> 
400
(
3.02138e-05
-0.0221481
-0.0485107
-0.0683073
-0.0757739
-0.0684684
-0.0461006
-0.00979133
0.0382746
0.0949212
0.155982
0.216406
0.270597
0.313034
0.339168
0.346482
0.335543
0.310847
0.281206
0.25933
0.0221131
-0.000856636
-0.0214462
-0.0348906
-0.0388192
-0.0315823
-0.012825
0.0167422
0.0555586
0.101228
0.150506
0.199403
0.243475
0.278349
0.300458
0.307874
0.3011
0.283422
0.260001
0.237751
0.0500515
0.0183409
-0.00370414
-0.015791
-0.0189412
-0.0124877
0.003688
0.0290099
0.0623241
0.101794
0.144796
0.18794
0.227302
0.25888
0.279259
0.286382
0.280321
0.263354
0.237665
0.206532
0.0735513
0.0301908
0.0031713
-0.0103984
-0.0144659
-0.0092549
0.00505694
0.0279239
0.0584828
0.095312
0.136192
0.178022
0.216958
0.248831
0.269792
0.277133
0.270217
0.250484
0.217912
0.173893
0.0852839
0.0301673
-0.00264372
-0.018598
-0.0241702
-0.0203099
-0.00740993
0.0140513
0.0435055
0.0799181
0.121405
0.165017
0.206782
0.242049
0.266147
0.275316
0.267916
0.244522
0.203279
0.144603
0.0795417
0.0132563
-0.0253571
-0.0439271
-0.0511391
-0.0485117
-0.0365409
-0.0155517
0.0142442
0.0522384
0.096893
0.145377
0.193464
0.235788
0.266485
0.280281
0.274103
0.247424
0.196576
0.121522
0.0514645
-0.0252414
-0.069314
-0.0903582
-0.0990705
-0.0974309
-0.0859327
-0.0646372
-0.0332872
0.00805118
0.0582975
0.114814
0.173113
0.22695
0.2689
0.291602
0.289905
0.261614
0.200787
0.107071
-0.00343165
-0.0897914
-0.13875
-0.16183
-0.171679
-0.170704
-0.159321
-0.137206
-0.10347
-0.057435
0.000509702
0.0681469
0.140878
0.211545
0.270831
0.308609
0.316705
0.290239
0.219854
0.104568
-0.0894975
-0.184825
-0.237897
-0.262239
-0.272573
-0.271808
-0.260255
-0.237088
-0.20059
-0.149048
-0.0817976
-0.000229113
0.0913123
0.184937
0.269236
0.33058
0.356517
0.337838
0.259694
0.119522
-0.211082
-0.314879
-0.370959
-0.395186
-0.40478
-0.403386
-0.391262
-0.366986
-0.327783
-0.270553
-0.19309
-0.0953633
0.0191694
0.142391
0.260903
0.356952
0.412299
0.411023
0.329375
0.161152
-0.372791
-0.48487
-0.542113
-0.563602
-0.570035
-0.566266
-0.552638
-0.527061
-0.485458
-0.422939
-0.335186
-0.219987
-0.0789958
0.080378
0.243375
0.387925
0.488515
0.519375
0.442661
0.244501
-0.580242
-0.700734
-0.755617
-0.769289
-0.767882
-0.75823
-0.740962
-0.713225
-0.669358
-0.602252
-0.504869
-0.371975
-0.202286
-0.00110106
0.216838
0.425842
0.592202
0.67674
0.620198
0.393711
-0.842014
-0.970768
-1.01608
-1.01232
-0.994553
-0.97263
-0.947549
-0.91545
-0.868694
-0.797471
-0.691447
-0.541566
-0.342406
-0.0954053
0.186954
0.477462
0.734758
0.903115
0.892721
0.647493
-1.17431
-1.3082
-1.32878
-1.29009
-1.2416
-1.19698
-1.15718
-1.11665
-1.06508
-0.989383
-0.875388
-0.70958
-0.481367
-0.186508
0.16773
0.556513
0.93402
1.22702
1.30584
1.06891
-1.61157
-1.73557
-1.69926
-1.59532
-1.49393
-1.41162
-1.34749
-1.29274
-1.23319
-1.15161
-1.02952
-0.84851
-0.59215
-0.248997
0.182117
0.684409
1.21477
1.68667
1.92566
1.76141
-2.22784
-2.29088
-2.13128
-1.91283
-1.72758
-1.58896
-1.48971
-1.41477
-1.34404
-1.25497
-1.12424
-0.928334
-0.644656
-0.25353
0.257638
0.88701
1.60582
2.32706
2.8403
2.88682
-3.18035
-3.03363
-2.62396
-2.21889
-1.91102
-1.69669
-1.55365
-1.45546
-1.37286
-1.27663
-1.13806
-0.928487
-0.618954
-0.180682
0.413361
1.18399
2.13165
3.19179
4.15861
4.69299
-4.85698
-4.04159
-3.14309
-2.46303
-1.99667
-1.69514
-1.51037
-1.39547
-1.30821
-1.21167
-1.07196
-0.855806
-0.528317
-0.0507421
0.622093
1.54336
2.76209
4.28006
6.02932
7.69349
-8.35164
-5.34054
-3.43042
-2.41736
-1.82427
-1.47948
-1.29598
-1.20143
-1.13996
-1.06913
-0.952837
-0.756061
-0.441403
0.0371585
0.742086
1.76621
3.23972
5.34596
8.55069
13.0759
-14.9085
-6.59162
-2.94899
-1.72612
-1.19322
-0.94311
-0.859359
-0.856614
-0.874893
-0.873888
-0.821431
-0.686746
-0.435346
-0.0244928
0.609531
1.57996
3.1127
5.7331
11.044
21.0424
)
;

boundaryField
{
    movingWall
    {
        type            zeroGradient;
    }
    fixedWalls
    {
        type            zeroGradient;
    }
    frontAndBack
    {
        type            empty;
    }
}


// ************************************************************************* //
