/*--------------------------------*- C++ -*----------------------------------*\
  =========                 |
  \\      /  F ield         | OpenFOAM: The Open Source CFD Toolbox
   \\    /   O peration     | Website:  https://openfoam.org
    \\  /    A nd           | Version:  8
     \\/     M anipulation  |
\*---------------------------------------------------------------------------*/
FoamFile
{
    version     2.0;
    format      ascii;
    class       surfaceScalarField;
    location    "0.2";
    object      phi;
}
// * * * * * * * * * * * * * * * * * * * * * * * * * * * * * * * * * * * * * //

dimensions      [0 3 -1 0 0 0 0];

internalField   nonuniform List<scalar> 
760
(
4.90946e-08
-4.93428e-08
-9.66917e-08
1.45784e-07
-4.46571e-07
3.49886e-07
-9.351e-07
4.88528e-07
-1.49117e-06
5.56073e-07
-2.05122e-06
5.60052e-07
-2.56114e-06
5.09918e-07
-2.97549e-06
4.14344e-07
-3.25663e-06
2.8114e-07
-3.37541e-06
1.18777e-07
-3.31367e-06
-6.17408e-08
-3.06815e-06
-2.4552e-07
-2.65459e-06
-4.13552e-07
-2.1107e-06
-5.43887e-07
-1.49631e-06
-6.14388e-07
-8.89402e-07
-6.0691e-07
-3.76884e-07
-5.12516e-07
-3.9979e-08
-3.36905e-07
7.03395e-08
-1.1032e-07
7.03376e-08
-1.42463e-07
9.31063e-08
-7.12465e-07
7.15795e-07
-1.67648e-06
1.3139e-06
-2.9145e-06
1.72655e-06
-4.28425e-06
1.92583e-06
-5.64696e-06
1.92276e-06
-6.87753e-06
1.74049e-06
-7.86818e-06
1.40499e-06
-8.53044e-06
9.43395e-07
-8.79855e-06
3.86887e-07
-8.63521e-06
-2.25081e-07
-8.03883e-06
-8.41895e-07
-7.05062e-06
-1.40177e-06
-5.7586e-06
-1.8359e-06
-4.2959e-06
-2.07709e-06
-2.83023e-06
-2.07258e-06
-1.54279e-06
-1.79996e-06
-5.9626e-07
-1.28343e-06
-9.16839e-08
-6.14892e-07
-2.13468e-08
-3.70294e-07
4.63402e-07
-1.39691e-06
1.74242e-06
-2.9451e-06
2.8621e-06
-4.83602e-06
3.61746e-06
-6.87608e-06
3.96588e-06
-8.87757e-06
3.92425e-06
-1.06696e-05
3.53253e-06
-1.21038e-05
2.83915e-06
-1.30583e-05
1.8979e-06
-1.34435e-05
7.7209e-07
-1.32094e-05
-4.59145e-07
-1.23549e-05
-1.69644e-06
-1.09358e-05
-2.82079e-06
-9.07052e-06
-3.70121e-06
-6.93704e-06
-4.21057e-06
-4.76048e-06
-4.24914e-06
-2.78685e-06
-3.77359e-06
-1.24447e-06
-2.82581e-06
-2.97142e-07
-1.56221e-06
-3.18488e-07
-5.78158e-07
1.04157e-06
-2.04482e-06
3.20908e-06
-4.14937e-06
4.96664e-06
-6.64173e-06
6.10983e-06
-9.27928e-06
6.60343e-06
-1.18365e-05
6.48147e-06
-1.41112e-05
5.8072e-06
-1.59282e-05
4.6562e-06
-1.71436e-05
3.1133e-06
-1.76502e-05
1.27864e-06
-1.73858e-05
-7.23519e-07
-1.63438e-05
-2.73841e-06
-1.45834e-05
-4.58125e-06
-1.22368e-05
-6.0478e-06
-9.51023e-06
-6.9371e-06
-6.67284e-06
-7.08653e-06
-4.03068e-06
-6.41575e-06
-1.88621e-06
-4.97028e-06
-4.89799e-07
-2.95863e-06
-8.08286e-07
-7.64423e-07
1.80599e-06
-2.64262e-06
5.08727e-06
-5.27169e-06
7.59571e-06
-8.32652e-06
9.16466e-06
-1.15159e-05
9.79285e-06
-1.45824e-05
9.54795e-06
-1.73012e-05
8.52597e-06
-1.94795e-05
6.83454e-06
-2.09579e-05
4.59171e-06
-2.16143e-05
1.93504e-06
-2.1372e-05
-9.65818e-07
-2.0211e-05
-3.89949e-06
-1.81809e-05
-6.61132e-06
-1.54139e-05
-8.81478e-06
-1.21316e-05
-1.02194e-05
-8.64083e-06
-1.05773e-05
-5.31195e-06
-9.74464e-06
-2.53733e-06
-7.74489e-06
-6.75982e-07
-4.81997e-06
-1.48427e-06
-9.33802e-07
2.73979e-06
-3.19446e-06
7.34793e-06
-6.31456e-06
1.07158e-05
-9.8954e-06
1.27455e-05
-1.35995e-05
1.34969e-05
-1.71422e-05
1.30907e-05
-2.02832e-05
1.1667e-05
-2.28192e-05
9.37051e-06
-2.45802e-05
6.35273e-06
-2.54308e-05
2.78558e-06
-2.52759e-05
-1.12063e-06
-2.40734e-05
-5.10203e-06
-2.18501e-05
-8.83458e-06
-1.87223e-05
-1.19426e-05
-1.49129e-05
-1.40288e-05
-1.07598e-05
-1.47304e-05
-6.70292e-06
-1.38015e-05
-3.24314e-06
-1.12047e-05
-8.74226e-07
-7.18889e-06
-2.3585e-06
-1.09034e-06
3.83013e-06
-3.7061e-06
9.96369e-06
-7.28137e-06
1.42911e-05
-1.13471e-05
1.68113e-05
-1.55236e-05
1.76734e-05
-1.95053e-05
1.70723e-05
-2.30437e-05
1.52055e-05
-2.59328e-05
1.22595e-05
-2.7998e-05
8.41794e-06
-2.90928e-05
3.88044e-06
-2.91018e-05
-1.11165e-06
-2.79518e-05
-6.252e-06
-2.56327e-05
-1.11537e-05
-2.22256e-05
-1.53497e-05
-1.79356e-05
-1.83188e-05
-1.31179e-05
-1.95481e-05
-8.28219e-06
-1.86372e-05
-4.05699e-06
-1.54299e-05
-1.10553e-06
-1.01403e-05
-3.46403e-06
-1.23686e-06
5.06699e-06
-4.18144e-06
1.29083e-05
-8.17098e-06
1.82806e-05
-1.26686e-05
2.13088e-05
-1.72575e-05
2.22623e-05
-2.16197e-05
2.14346e-05
-2.55089e-05
1.90946e-05
-2.87261e-05
1.54767e-05
-3.11014e-05
1.07932e-05
-3.24831e-05
5.26221e-06
-3.27361e-05
-8.58664e-07
-3.17507e-05
-7.23746e-06
-2.94651e-05
-1.34393e-05
-2.5903e-05
-1.89118e-05
-2.12232e-05
-2.29986e-05
-1.57724e-05
-2.49989e-05
-1.01182e-05
-2.42914e-05
-5.03188e-06
-2.05162e-05
-1.39158e-06
-1.37806e-05
-4.85561e-06
-1.37605e-06
6.44304e-06
-4.62424e-06
1.61565e-05
-8.97917e-06
2.26355e-05
-1.38356e-05
2.61653e-05
-1.87466e-05
2.71733e-05
-2.33928e-05
2.60807e-05
-2.75437e-05
2.32455e-05
-3.10224e-05
1.89554e-05
-3.36771e-05
1.34479e-05
-3.53622e-05
6.94735e-06
-3.59297e-05
-2.912e-07
-3.52327e-05
-7.93444e-06
-3.3147e-05
-1.55251e-05
-2.96137e-05
-2.24451e-05
-2.47078e-05
-2.79045e-05
-1.87234e-05
-3.09832e-05
-1.22539e-05
-3.0761e-05
-6.21539e-06
-2.65547e-05
-1.75478e-06
-1.82413e-05
-6.61039e-06
-1.51353e-06
7.95657e-06
-5.04415e-06
1.96871e-05
-9.70568e-06
2.72971e-05
-1.48198e-05
3.12794e-05
-1.99174e-05
3.2271e-05
-2.4694e-05
3.08573e-05
-2.89541e-05
2.75057e-05
-3.25625e-05
2.25637e-05
-3.54048e-05
1.62903e-05
-3.73599e-05
8.90241e-06
-3.82814e-05
6.30364e-07
-3.79939e-05
-8.22195e-06
-3.63066e-05
-1.72124e-05
-3.30562e-05
-2.56955e-05
-2.81884e-05
-3.27723e-05
-2.18809e-05
-3.72907e-05
-1.4688e-05
-3.79538e-05
-7.64487e-06
-3.35978e-05
-2.21951e-06
-2.36666e-05
-8.8299e-06
-1.66297e-06
9.61953e-06
-5.46679e-06
2.34909e-05
-1.03652e-05
3.21954e-05
-1.55967e-05
3.65109e-05
-2.06836e-05
3.73579e-05
-2.53594e-05
3.55332e-05
-2.94898e-05
3.16361e-05
-3.30068e-05
2.60807e-05
-3.58588e-05
1.91423e-05
-3.79735e-05
1.1017e-05
-3.92304e-05
1.88728e-06
-3.94451e-05
-8.00724e-06
-3.83698e-05
-1.82877e-05
-3.57249e-05
-2.83403e-05
-3.12824e-05
-3.72148e-05
-2.50202e-05
-4.3553e-05
-1.73475e-05
-4.56266e-05
-9.3396e-06
-4.16057e-05
-2.81427e-06
-3.01919e-05
-1.16442e-05
-1.8545e-06
1.1474e-05
-5.94759e-06
2.7584e-05
-1.09988e-05
3.72467e-05
-1.61522e-05
4.16642e-05
-2.09463e-05
4.2152e-05
-2.51893e-05
3.97762e-05
-2.88431e-05
3.52899e-05
-3.19383e-05
2.91759e-05
-3.45146e-05
2.17186e-05
-3.65774e-05
1.30798e-05
-3.80633e-05
3.37323e-06
-3.88114e-05
-7.25917e-06
-3.85443e-05
-1.85548e-05
-3.68755e-05
-3.00091e-05
-3.33732e-05
-4.07171e-05
-2.77254e-05
-4.92008e-05
-2.00447e-05
-5.33072e-05
-1.12857e-05
-5.03647e-05
-3.5747e-06
-3.79029e-05
-1.52189e-05
-2.14833e-06
1.36224e-05
-6.58782e-06
3.20235e-05
-1.16787e-05
4.23376e-05
-1.64705e-05
4.6456e-05
-2.05716e-05
4.62531e-05
-2.39226e-05
4.31272e-05
-2.66281e-05
3.79954e-05
-2.88518e-05
3.13996e-05
-3.07521e-05
2.36189e-05
-3.24394e-05
1.47671e-05
-3.39395e-05
4.87342e-06
-3.51563e-05
-6.04237e-06
-3.58304e-05
-1.78808e-05
-3.55092e-05
-3.03303e-05
-3.35634e-05
-4.26629e-05
-2.93205e-05
-5.34437e-05
-2.24133e-05
-6.02145e-05
-1.34057e-05
-5.93723e-05
-4.54657e-06
-4.67621e-05
-1.97654e-05
-2.65611e-06
1.62785e-05
-7.54508e-06
3.69125e-05
-1.24826e-05
4.72751e-05
-1.64756e-05
5.04491e-05
-1.93124e-05
4.90898e-05
-2.11562e-05
4.4971e-05
-2.23119e-05
3.91511e-05
-2.31076e-05
3.21953e-05
-2.38374e-05
2.43487e-05
-2.47309e-05
1.56606e-05
-2.59262e-05
6.06871e-06
-2.74312e-05
-4.5374e-06
-2.90664e-05
-1.62456e-05
-3.03915e-05
-2.90052e-05
-3.06464e-05
-4.24079e-05
-2.8791e-05
-5.52992e-05
-2.38097e-05
-6.51957e-05
-1.54957e-05
-6.76863e-05
-5.7826e-06
-5.64751e-05
-2.5548e-05
-3.56772e-06
1.98462e-05
-9.0073e-06
4.2352e-05
-1.338e-05
5.16478e-05
-1.58529e-05
5.2922e-05
-1.66055e-05
4.98424e-05
-1.61513e-05
4.45168e-05
-1.50514e-05
3.80513e-05
-1.38106e-05
3.09544e-05
-1.28499e-05
2.3388e-05
-1.25051e-05
1.53158e-05
-1.30229e-05
6.58651e-06
-1.45364e-05
-3.02388e-06
-1.70057e-05
-1.37763e-05
-2.01113e-05
-2.58996e-05
-2.31066e-05
-3.94127e-05
-2.46978e-05
-5.3708e-05
-2.31597e-05
-6.67338e-05
-1.70871e-05
-7.37589e-05
-7.30705e-06
-6.62552e-05
-3.28551e-05
-5.14735e-06
2.49935e-05
-1.10177e-05
4.82224e-05
-1.38762e-05
5.45063e-05
-1.36063e-05
5.26521e-05
-1.11316e-05
4.73677e-05
-7.44884e-06
4.08341e-05
-3.38687e-06
3.39893e-05
4.13342e-07
2.71542e-05
3.463e-06
2.03384e-05
5.37719e-06
1.34016e-05
5.84468e-06
6.11903e-06
4.62438e-06
-1.80358e-06
1.58567e-06
-1.07376e-05
-3.18274e-06
-2.11312e-05
-9.16082e-06
-3.34346e-05
-1.50869e-05
-4.77819e-05
-1.87118e-05
-6.31089e-05
-1.71432e-05
-7.53274e-05
-8.96655e-06
-7.44318e-05
-4.18216e-05
-7.55656e-06
3.25501e-05
-1.2799e-05
5.34648e-05
-1.20425e-05
5.37498e-05
-7.08343e-06
4.7693e-05
4.75143e-09
4.02795e-05
7.75535e-06
3.30835e-05
1.51988e-05
2.65458e-05
2.17105e-05
2.06425e-05
2.68666e-05
1.51822e-05
3.03435e-05
9.92474e-06
3.18532e-05
4.60931e-06
3.11108e-05
-1.06118e-06
2.7839e-05
-7.46575e-06
2.18333e-05
-1.51255e-05
1.31631e-05
-2.47644e-05
2.60444e-06
-3.72232e-05
-7.66305e-06
-5.28414e-05
-1.34837e-05
-6.95068e-05
-1.00264e-05
-7.78891e-05
-5.1848e-05
-1.00509e-05
4.2601e-05
-1.06076e-05
5.40216e-05
-2.18405e-06
4.53262e-05
9.8723e-06
3.56367e-05
2.2517e-05
2.76349e-05
3.43257e-05
2.12747e-05
4.46336e-05
1.6238e-05
5.31286e-05
1.21475e-05
5.96492e-05
8.66166e-06
6.40675e-05
5.50636e-06
6.6224e-05
2.45289e-06
6.58846e-05
-7.2177e-07
6.27093e-05
-4.29044e-06
5.62417e-05
-8.65794e-06
4.5983e-05
-1.45057e-05
3.17268e-05
-2.2967e-05
1.44941e-05
-3.56086e-05
-1.67165e-06
-5.33411e-05
-8.30751e-06
-7.12533e-05
-6.01555e-05
-5.92176e-06
4.85228e-05
9.06103e-06
3.90388e-05
2.99492e-05
2.4438e-05
4.93429e-05
1.62431e-05
6.57333e-05
1.12444e-05
7.91051e-05
7.90283e-06
8.97429e-05
5.60027e-06
9.79501e-05
3.9403e-06
0.000103958
2.65331e-06
0.000107898
1.56708e-06
0.000109784
5.66601e-07
0.000109509
-4.46307e-07
0.000106789
-1.57077e-06
0.000101104
-2.97275e-06
9.15669e-05
-4.9689e-06
7.68544e-05
-8.25458e-06
5.56128e-05
-1.4367e-05
2.84427e-05
-2.61711e-05
3.37469e-06
-4.61852e-05
-5.67808e-05
4.85228e-05
8.75615e-05
0.000112
0.000128243
0.000139487
0.00014739
0.00015299
0.00015693
0.000159584
0.000161151
0.000161717
0.000161271
0.0001597
0.000156728
0.000151759
0.000143504
0.000129137
0.000102966
5.67808e-05
)
;

boundaryField
{
    movingWall
    {
        type            calculated;
        value           uniform 0;
    }
    fixedWalls
    {
        type            calculated;
        value           uniform 0;
    }
    frontAndBack
    {
        type            empty;
        value           nonuniform List<scalar> 0();
    }
}


// ************************************************************************* //
