/*--------------------------------*- C++ -*----------------------------------*\
  =========                 |
  \\      /  F ield         | OpenFOAM: The Open Source CFD Toolbox
   \\    /   O peration     | Website:  https://openfoam.org
    \\  /    A nd           | Version:  8
     \\/     M anipulation  |
\*---------------------------------------------------------------------------*/
FoamFile
{
    version     2.0;
    format      ascii;
    class       volVectorField;
    location    "0.2";
    object      U;
}
// * * * * * * * * * * * * * * * * * * * * * * * * * * * * * * * * * * * * * //

dimensions      [0 1 -1 0 0 0 0];

internalField   nonuniform List<vector> 
400
(
(0.000912457 -0.000912241 0)
(0.000350681 0.000487172 0)
(-0.00474858 0.00214928 0)
(-0.013402 0.00328012 0)
(-0.0241241 0.00383928 0)
(-0.0355373 0.00391427 0)
(-0.0464556 0.00359541 0)
(-0.0558809 0.00295325 0)
(-0.0629798 0.00204131 0)
(-0.067077 0.000912608 0)
(-0.0676868 -0.000361323 0)
(-0.0645801 -0.00167665 0)
(-0.0578698 -0.00289265 0)
(-0.0480865 -0.00383964 0)
(-0.0362157 -0.0043398 0)
(-0.0236652 -0.00424012 0)
(-0.0121355 -0.00345465 0)
(-0.00337912 -0.00201233 0)
(0.00116791 -0.00016946 0)
(0.00112142 0.00108804 0)
(-0.000423181 -0.000442651 0)
(-0.00655169 0.00652333 0)
(-0.0222443 0.0137612 0)
(-0.0449631 0.0187983 0)
(-0.07172 0.0212855 0)
(-0.0996722 0.0214095 0)
(-0.126162 0.0194801 0)
(-0.148842 0.0158111 0)
(-0.165736 0.0107057 0)
(-0.175279 0.00450161 0)
(-0.176413 -0.00236771 0)
(-0.168717 -0.00933011 0)
(-0.152563 -0.0156697 0)
(-0.129239 -0.0205733 0)
(-0.100985 -0.0232339 0)
(-0.0708828 -0.0230054 0)
(-0.0425317 -0.0195963 0)
(-0.0195021 -0.0132778 0)
(-0.00477942 -0.00522119 0)
(9.12994e-05 0.00130365 0)
(-0.00221781 0.00467469 0)
(-0.014759 0.0224363 0)
(-0.0411357 0.0388914 0)
(-0.0766046 0.0502254 0)
(-0.116878 0.0556429 0)
(-0.158173 0.0553804 0)
(-0.196894 0.0500385 0)
(-0.229818 0.0403316 0)
(-0.254218 0.0270356 0)
(-0.267949 0.0110557 0)
(-0.269578 -0.00646968 0)
(-0.258553 -0.0240962 0)
(-0.235391 -0.0400814 0)
(-0.201829 -0.0525008 0)
(-0.160864 -0.0594886 0)
(-0.116623 -0.0595934 0)
(-0.0739392 -0.0522152 0)
(-0.0376712 -0.0380493 0)
(-0.0123124 -0.0196065 0)
(-0.00145049 -0.00255052 0)
(-0.00381755 0.0142271 0)
(-0.0224627 0.0475432 0)
(-0.0591495 0.0757065 0)
(-0.106578 0.0944658 0)
(-0.159077 0.102916 0)
(-0.212083 0.101491 0)
(-0.261342 0.0911809 0)
(-0.30305 0.0731988 0)
(-0.33399 0.0489135 0)
(-0.351616 0.0199443 0)
(-0.354196 -0.0116907 0)
(-0.340995 -0.0434722 0)
(-0.312497 -0.0723963 0)
(-0.270597 -0.0951629 0)
(-0.218705 -0.108565 0)
(-0.161665 -0.110072 0)
(-0.105339 -0.0985491 0)
(-0.0558869 -0.0749649 0)
(-0.0196486 -0.0430405 0)
(-0.00282869 -0.010427 0)
(-0.00520594 0.0277207 0)
(-0.0294743 0.0811332 0)
(-0.0758899 0.123222 0)
(-0.134573 0.150148 0)
(-0.198429 0.161414 0)
(-0.262184 0.157946 0)
(-0.321082 0.141284 0)
(-0.370929 0.113233 0)
(-0.408187 0.0758153 0)
(-0.430013 0.031412 0)
(-0.434377 -0.017029 0)
(-0.420257 -0.0658425 0)
(-0.387891 -0.110647 0)
(-0.339052 -0.146578 0)
(-0.277269 -0.168804 0)
(-0.207893 -0.173349 0)
(-0.137776 -0.158124 0)
(-0.0745855 -0.123969 0)
(-0.0269338 -0.0754802 0)
(-0.00408371 -0.0220474 0)
(-0.00644419 0.0447618 0)
(-0.0358946 0.122651 0)
(-0.0914073 0.180878 0)
(-0.160632 0.216686 0)
(-0.235089 0.230531 0)
(-0.308859 0.224195 0)
(-0.376809 0.19998 0)
(-0.434507 0.160383 0)
(-0.478223 0.108102 0)
(-0.504889 0.0462533 0)
(-0.512164 -0.0213314 0)
(-0.49861 -0.0898691 0)
(-0.463991 -0.153563 0)
(-0.409648 -0.20582 0)
(-0.338913 -0.239852 0)
(-0.257411 -0.249717 0)
(-0.172949 -0.231732 0)
(-0.0949388 -0.185979 0)
(-0.0347846 -0.117505 0)
(-0.00538825 -0.0374445 0)
(-0.00758252 0.0650539 0)
(-0.0418393 0.171545 0)
(-0.105805 0.248019 0)
(-0.184782 0.29338 0)
(-0.26898 0.309578 0)
(-0.351933 0.29966 0)
(-0.428273 0.266933 0)
(-0.493492 0.214687 0)
(-0.543814 0.146281 0)
(-0.576037 0.0654692 0)
(-0.587511 -0.023175 0)
(-0.576281 -0.113888 0)
(-0.541403 -0.199517 0)
(-0.483442 -0.271636 0)
(-0.405123 -0.321139 0)
(-0.311979 -0.339457 0)
(-0.2126 -0.320416 0)
(-0.118316 -0.262405 0)
(-0.0439414 -0.170297 0)
(-0.00693811 -0.0570612 0)
(-0.00865643 0.0883688 0)
(-0.0473973 0.227279 0)
(-0.119141 0.323889 0)
(-0.206908 0.379314 0)
(-0.299683 0.397583 0)
(-0.390591 0.383451 0)
(-0.474218 0.341507 0)
(-0.546192 0.275934 0)
(-0.602892 0.190704 0)
(-0.641138 0.09005 0)
(-0.658049 -0.0209584 0)
(-0.651109 -0.135842 0)
(-0.61847 -0.246291 0)
(-0.55955 -0.342064 0)
(-0.475936 -0.411423 0)
(-0.372481 -0.442421 0)
(-0.258109 -0.4252 0)
(-0.146034 -0.355074 0)
(-0.05518 -0.235687 0)
(-0.00894257 -0.0817753 0)
(-0.00970095 0.114528 0)
(-0.0526628 0.289335 0)
(-0.131462 0.407599 0)
(-0.226785 0.473264 0)
(-0.326458 0.4931 0)
(-0.423387 0.474096 0)
(-0.512376 0.422435 0)
(-0.589481 0.343304 0)
(-0.651523 0.241222 0)
(-0.695603 0.120674 0)
(-0.7188 -0.0131093 0)
(-0.718116 -0.153341 0)
(-0.6907 -0.290953 0)
(-0.634466 -0.414114 0)
(-0.549231 -0.508319 0)
(-0.438301 -0.557499 0)
(-0.31006 -0.546642 0)
(-0.179167 -0.465986 0)
(-0.0692885 -0.316105 0)
(-0.0116388 -0.11291 0)
(-0.0107839 0.143424 0)
(-0.0578332 0.357231 0)
(-0.142942 0.498084 0)
(-0.244209 0.573531 0)
(-0.348353 0.593942 0)
(-0.448327 0.569184 0)
(-0.539522 0.507405 0)
(-0.618817 0.414922 0)
(-0.683875 0.296721 0)
(-0.732456 0.157282 0)
(-0.761941 0.00157484 0)
(-0.7691 -0.163865 0)
(-0.75015 -0.329834 0)
(-0.701277 -0.48347 0)
(-0.619862 -0.607709 0)
(-0.506535 -0.681842 0)
(-0.367706 -0.684075 0)
(-0.218331 -0.596799 0)
(-0.0870759 -0.414405 0)
(-0.0153255 -0.152258 0)
(-0.0120649 0.17512 0)
(-0.0633752 0.430624 0)
(-0.154105 0.594065 0)
(-0.259209 0.677757 0)
(-0.364356 0.696869 0)
(-0.462967 0.66497 0)
(-0.551541 0.592608 0)
(-0.628307 0.487372 0)
(-0.692272 0.354625 0)
(-0.742352 0.198567 0)
(-0.776725 0.0234389 0)
(-0.792387 -0.165145 0)
(-0.784954 -0.358718 0)
(-0.748914 -0.54435 0)
(-0.678704 -0.703196 0)
(-0.571 -0.809933 0)
(-0.428197 -0.834518 0)
(-0.263337 -0.747979 0)
(-0.10938 -0.53355 0)
(-0.0204186 -0.202145 0)
(-0.0138974 0.21009 0)
(-0.0702781 0.509531 0)
(-0.166102 0.694041 0)
(-0.272219 0.782684 0)
(-0.37344 0.797211 0)
(-0.464372 0.755941 0)
(-0.543378 0.672292 0)
(-0.610699 0.555231 0)
(-0.667276 0.410394 0)
(-0.713746 0.241427 0)
(-0.749675 0.051385 0)
(-0.772936 -0.155754 0)
(-0.779187 -0.373309 0)
(-0.761662 -0.589678 0)
(-0.711751 -0.785751 0)
(-0.62107 -0.932609 0)
(-0.485498 -0.991256 0)
(-0.312589 -0.917498 0)
(-0.137035 -0.676049 0)
(-0.0275402 -0.265557 0)
(-0.0170104 0.249681 0)
(-0.0804167 0.594655 0)
(-0.18095 0.796157 0)
(-0.284008 0.883722 0)
(-0.374198 0.888341 0)
(-0.448603 0.834327 0)
(-0.508541 0.738353 0)
(-0.55706 0.610738 0)
(-0.597625 0.457201 0)
(-0.633106 0.280567 0)
(-0.665034 0.0823245 0)
(-0.692886 -0.13581 0)
(-0.713277 -0.370008 0)
(-0.719158 -0.611688 0)
(-0.699509 -0.843809 0)
(-0.640443 -1.03628 0)
(-0.528895 -1.14215 0)
(-0.362027 -1.09887 0)
(-0.170699 -0.842918 0)
(-0.0376421 -0.34635 0)
(-0.0228184 0.296934 0)
(-0.0970029 0.687692 0)
(-0.201428 0.897694 0)
(-0.294785 0.974065 0)
(-0.363387 0.96084 0)
(-0.409048 0.88953 0)
(-0.437546 0.780065 0)
(-0.455575 0.643742 0)
(-0.469547 0.485972 0)
(-0.484833 0.308468 0)
(-0.505248 0.110916 0)
(-0.532461 -0.107602 0)
(-0.565051 -0.346911 0)
(-0.597149 -0.603113 0)
(-0.616959 -0.864141 0)
(-0.606035 -1.10281 0)
(-0.541029 -1.26798 0)
(-0.403264 -1.27841 0)
(-0.210224 -1.03169 0)
(-0.0521049 -0.449437 0)
(-0.0338577 0.357906 0)
(-0.124827 0.791181 0)
(-0.229683 0.993544 0)
(-0.301137 1.04295 0)
(-0.331946 1.00125 0)
(-0.332329 0.907586 0)
(-0.314273 0.784183 0)
(-0.288671 0.64226 0)
(-0.264829 0.486166 0)
(-0.250324 0.316133 0)
(-0.25103 0.129985 0)
(-0.270914 -0.0757675 0)
(-0.311259 -0.304793 0)
(-0.369044 -0.558929 0)
(-0.434361 -0.833897 0)
(-0.487208 -1.11078 0)
(-0.495299 -1.34165 0)
(-0.420202 -1.43186 0)
(-0.252656 -1.23282 0)
(-0.0724354 -0.580568 0)
(-0.0539072 0.443795 0)
(-0.16878 0.906618 0)
(-0.26172 1.07231 0)
(-0.287583 1.07245 0)
(-0.255829 0.990472 0)
(-0.189889 0.871069 0)
(-0.109005 0.735981 0)
(-0.0277245 0.594213 0)
(0.0428641 0.447807 0)
(0.0941993 0.295073 0)
(0.119421 0.132133 0)
(0.112953 -0.0464714 0)
(0.0707931 -0.247504 0)
(-0.00815246 -0.47827 0)
(-0.119042 -0.743803 0)
(-0.245594 -1.03877 0)
(-0.35245 -1.32923 0)
(-0.382896 -1.52123 0)
(-0.28671 -1.42419 0)
(-0.098226 -0.746017 0)
(-0.0856597 0.575304 0)
(-0.225405 1.02714 0)
(-0.269903 1.1058 0)
(-0.206016 1.03048 0)
(-0.0775492 0.901263 0)
(0.0765025 0.759814 0)
(0.23206 0.621783 0)
(0.374063 0.490748 0)
(0.49253 0.365014 0)
(0.58034 0.240685 0)
(0.63161 0.112689 0)
(0.640709 -0.0252445 0)
(0.601926 -0.18117 0)
(0.509946 -0.365711 0)
(0.362087 -0.591882 0)
(0.164409 -0.870504 0)
(-0.0562177 -1.19324 0)
(-0.237507 -1.49182 0)
(-0.280748 -1.56238 0)
(-0.120011 -0.952488 0)
(-0.115918 0.781168 0)
(-0.250382 1.11307 0)
(-0.15518 1.02806 0)
(0.067522 0.863008 0)
(0.324318 0.699908 0)
(0.573357 0.556977 0)
(0.796743 0.43606 0)
(0.985961 0.332868 0)
(1.13687 0.241641 0)
(1.24698 0.156868 0)
(1.31365 0.0733619 0)
(1.33313 -0.0143658 0)
(1.29983 -0.113177 0)
(1.20572 -0.233123 0)
(1.04062 -0.389843 0)
(0.795633 -0.606007 0)
(0.473329 -0.904342 0)
(0.110676 -1.27309 0)
(-0.158451 -1.55933 0)
(-0.096963 -1.18064 0)
(-0.0167423 0.984855 0)
(-0.0190267 1.02664 0)
(0.368778 0.751501 0)
(0.799466 0.540268 0)
(1.16353 0.392968 0)
(1.46037 0.287355 0)
(1.69932 0.210268 0)
(1.88691 0.151988 0)
(2.02844 0.105251 0)
(2.12764 0.0649403 0)
(2.18608 0.0272925 0)
(2.20294 -0.0109659 0)
(2.17452 -0.0536368 0)
(2.09313 -0.106491 0)
(1.94522 -0.180172 0)
(1.70932 -0.295677 0)
(1.3534 -0.491833 0)
(0.842049 -0.819627 0)
(0.281808 -1.24846 0)
(0.132227 -1.23569 0)
(1.0949 0.537111 0)
(1.412 0.474871 0)
(1.9781 0.297284 0)
(2.41556 0.183356 0)
(2.6938 0.11618 0)
(2.87986 0.0749393 0)
(3.01146 0.048932 0)
(3.10514 0.0318846 0)
(3.17006 0.0198841 0)
(3.21168 0.0105758 0)
(3.23281 0.00252104 0)
(3.23416 -0.00527838 0)
(3.21455 -0.0138458 0)
(3.17028 -0.0246371 0)
(3.09316 -0.0406193 0)
(2.96589 -0.0688041 0)
(2.74801 -0.126267 0)
(2.33745 -0.249534 0)
(1.68159 -0.475535 0)
(1.22568 -0.581175 0)
)
;

boundaryField
{
    movingWall
    {
        type            fixedValue;
        value           uniform (3.8 0 0);
    }
    fixedWalls
    {
        type            noSlip;
    }
    frontAndBack
    {
        type            empty;
    }
}


// ************************************************************************* //
