/*--------------------------------*- C++ -*----------------------------------*\
  =========                 |
  \\      /  F ield         | OpenFOAM: The Open Source CFD Toolbox
   \\    /   O peration     | Website:  https://openfoam.org
    \\  /    A nd           | Version:  8
     \\/     M anipulation  |
\*---------------------------------------------------------------------------*/
FoamFile
{
    version     2.0;
    format      ascii;
    class       volVectorField;
    location    "0.5";
    object      U;
}
// * * * * * * * * * * * * * * * * * * * * * * * * * * * * * * * * * * * * * //

dimensions      [0 1 -1 0 0 0 0];

internalField   nonuniform List<vector> 
400
(
(0.00068367 -0.000679877 0)
(0.000299257 0.000346219 0)
(-0.00344138 0.00158538 0)
(-0.00984609 0.00243877 0)
(-0.0178162 0.00286177 0)
(-0.0263041 0.0029117 0)
(-0.0343968 0.00265645 0)
(-0.041332 0.00215576 0)
(-0.0464917 0.00145975 0)
(-0.0493994 0.000617222 0)
(-0.0497365 -0.000313787 0)
(-0.0473783 -0.00125797 0)
(-0.0424395 -0.00211979 0)
(-0.0353169 -0.00278719 0)
(-0.0267098 -0.00314264 0)
(-0.0176021 -0.0030814 0)
(-0.00918608 -0.0025374 0)
(-0.00271473 -0.00151564 0)
(0.000736445 -0.000176859 0)
(0.000796343 0.000775195 0)
(-0.000282298 -0.000369145 0)
(-0.00472958 0.00474856 0)
(-0.0162518 0.010143 0)
(-0.033036 0.0139352 0)
(-0.0528677 0.0158109 0)
(-0.0735913 0.0158799 0)
(-0.0931786 0.0143766 0)
(-0.109854 0.0115643 0)
(-0.122157 0.00770995 0)
(-0.128977 0.00310161 0)
(-0.129607 -0.00192113 0)
(-0.123816 -0.00694347 0)
(-0.111936 -0.0114723 0)
(-0.0949254 -0.0149616 0)
(-0.0743851 -0.0168704 0)
(-0.0524893 -0.0167539 0)
(-0.0317772 -0.0143857 0)
(-0.0148024 -0.00990122 0)
(-0.00378428 -0.00405776 0)
(-6.191e-06 0.000831894 0)
(-0.00158406 0.0033246 0)
(-0.010716 0.0163871 0)
(-0.0300882 0.0286532 0)
(-0.0562766 0.0371795 0)
(-0.0860953 0.041261 0)
(-0.116672 0.0410157 0)
(-0.145269 0.0369022 0)
(-0.169453 0.0295175 0)
(-0.187214 0.0195275 0)
(-0.197027 0.00768201 0)
(-0.19793 -0.00513783 0)
(-0.189622 -0.0178837 0)
(-0.172561 -0.0293457 0)
(-0.148047 -0.0382196 0)
(-0.118239 -0.0432463 0)
(-0.0860565 -0.0434267 0)
(-0.0549118 -0.0382987 0)
(-0.0282623 -0.0282433 0)
(-0.00941287 -0.0148906 0)
(-0.00117291 -0.00218713 0)
(-0.0027409 0.0102451 0)
(-0.0163385 0.0347663 0)
(-0.043312 0.0557751 0)
(-0.078357 0.0698935 0)
(-0.117239 0.0762585 0)
(-0.156481 0.075106 0)
(-0.19283 0.0671986 0)
(-0.223417 0.0535514 0)
(-0.24587 0.0353298 0)
(-0.258386 0.0138637 0)
(-0.259809 -0.00928882 0)
(-0.249735 -0.0322939 0)
(-0.228637 -0.0530559 0)
(-0.197965 -0.0693289 0)
(-0.160192 -0.0789466 0)
(-0.118756 -0.0801767 0)
(-0.0777793 -0.0721731 0)
(-0.0416074 -0.0554515 0)
(-0.0148425 -0.0323919 0)
(-0.00221113 -0.00821242 0)
(-0.00374786 0.0200376 0)
(-0.0214917 0.0593977 0)
(-0.0557066 0.0908342 0)
(-0.0991652 0.111116 0)
(-0.146536 0.119592 0)
(-0.193767 0.116835 0)
(-0.237202 0.104045 0)
(-0.273664 0.0827386 0)
(-0.30055 0.0546406 0)
(-0.315858 0.0217111 0)
(-0.318251 -0.0137656 0)
(-0.307171 -0.0491091 0)
(-0.282971 -0.0812512 0)
(-0.247072 -0.106876 0)
(-0.202076 -0.12273 0)
(-0.15179 -0.126114 0)
(-0.101008 -0.115531 0)
(-0.0550756 -0.0913517 0)
(-0.0201518 -0.0564343 0)
(-0.00314789 -0.017007 0)
(-0.00466054 0.0324428 0)
(-0.0262945 0.0899485 0)
(-0.0674027 0.133514 0)
(-0.118872 0.160507 0)
(-0.174271 0.170878 0)
(-0.229002 0.165818 0)
(-0.279083 0.147138 0)
(-0.321143 0.116954 0)
(-0.35244 0.0775879 0)
(-0.370834 0.0316321 0)
(-0.374814 -0.017916 0)
(-0.363592 -0.067534 0)
(-0.337268 -0.113146 0)
(-0.297041 -0.150259 0)
(-0.245445 -0.17432 0)
(-0.18651 -0.181344 0)
(-0.125669 -0.168777 0)
(-0.0694087 -0.136428 0)
(-0.0257412 -0.087301 0)
(-0.0040999 -0.0285438 0)
(-0.00552822 0.0472996 0)
(-0.0308827 0.126136 0)
(-0.0785781 0.183478 0)
(-0.137643 0.217679 0)
(-0.200561 0.229696 0)
(-0.262244 0.221658 0)
(-0.318485 0.196196 0)
(-0.365832 0.156125 0)
(-0.401515 0.104383 0)
(-0.423333 0.0441521 0)
(-0.429612 -0.0209356 0)
(-0.419276 -0.0865916 0)
(-0.392024 -0.147761 0)
(-0.348625 -0.1987 0)
(-0.29129 -0.233331 0)
(-0.224049 -0.245978 0)
(-0.152871 -0.232473 0)
(-0.0854754 -0.191462 0)
(-0.0320871 -0.125651 0)
(-0.00519592 -0.0430654 0)
(-0.00639019 0.0645266 0)
(-0.0353737 0.16774 0)
(-0.0893768 0.240358 0)
(-0.155532 0.28212 0)
(-0.225257 0.295435 0)
(-0.293066 0.283739 0)
(-0.354662 0.250719 0)
(-0.406677 0.199999 0)
(-0.446469 0.13513 0)
(-0.47189 0.0597891 0)
(-0.481162 -0.0219022 0)
(-0.472895 -0.105051 0)
(-0.446257 -0.183744 0)
(-0.40134 -0.250986 0)
(-0.339698 -0.298975 0)
(-0.265005 -0.319873 0)
(-0.183499 -0.30717 0)
(-0.104109 -0.257497 0)
(-0.0396811 -0.172553 0)
(-0.00657001 -0.0610946 0)
(-0.00728559 0.0841084 0)
(-0.0398856 0.214598 0)
(-0.0999195 0.303733 0)
(-0.172478 0.353112 0)
(-0.247924 0.36715 0)
(-0.320509 0.351025 0)
(-0.386059 0.309762 0)
(-0.441521 0.247909 0)
(-0.484604 0.169604 0)
(-0.513404 0.0788813 0)
(-0.526168 -0.0198732 0)
(-0.521226 -0.121428 0)
(-0.497128 -0.219253 0)
(-0.453036 -0.305237 0)
(-0.389428 -0.369745 0)
(-0.309077 -0.402304 0)
(-0.217969 -0.393156 0)
(-0.126001 -0.335692 0)
(-0.0490195 -0.22945 0)
(-0.00837094 -0.0834358 0)
(-0.00827702 0.106108 0)
(-0.0446027 0.26661 0)
(-0.110386 0.373065 0)
(-0.188369 0.429589 0)
(-0.267862 0.443334 0)
(-0.343073 0.421783 0)
(-0.410262 0.371628 0)
(-0.467018 0.298464 0)
(-0.511713 0.206967 0)
(-0.542964 0.101342 0)
(-0.559262 -0.0140577 0)
(-0.558797 -0.13404 0)
(-0.539492 -0.251871 0)
(-0.499372 -0.358653 0)
(-0.437361 -0.443012 0)
(-0.354595 -0.491469 0)
(-0.255936 -0.489987 0)
(-0.151595 -0.427029 0)
(-0.0606185 -0.298067 0)
(-0.0107852 -0.11119 0)
(-0.00949302 0.130737 0)
(-0.0498886 0.323788 0)
(-0.121149 0.447638 0)
(-0.203134 0.509946 0)
(-0.284131 0.52165 0)
(-0.358677 0.493262 0)
(-0.423917 0.433526 0)
(-0.478529 0.349204 0)
(-0.521954 0.245429 0)
(-0.55369 0.126351 0)
(-0.572794 -0.00407478 0)
(-0.577567 -0.141186 0)
(-0.565446 -0.27863 0)
(-0.533228 -0.407328 0)
(-0.477845 -0.514596 0)
(-0.397902 -0.583866 0)
(-0.295848 -0.595823 0)
(-0.180912 -0.531815 0)
(-0.0750421 -0.380237 0)
(-0.0140765 -0.145801 0)
(-0.0112028 0.158518 0)
(-0.0564597 0.386379 0)
(-0.132934 0.526479 0)
(-0.216784 0.591783 0)
(-0.295461 0.598571 0)
(-0.364471 0.561311 0)
(-0.422516 0.491205 0)
(-0.469936 0.396254 0)
(-0.507713 0.281921 0)
(-0.536638 0.152022 0)
(-0.556721 0.00971573 0)
(-0.566751 -0.141427 0)
(-0.563996 -0.296182 0)
(-0.544166 -0.446202 0)
(-0.501952 -0.578389 0)
(-0.43254 -0.673569 0)
(-0.334282 -0.706504 0)
(-0.213243 -0.648912 0)
(-0.0929249 -0.477606 0)
(-0.0186526 -0.189155 0)
(-0.0139493 0.190611 0)
(-0.0656305 0.45503 0)
(-0.146917 0.608146 0)
(-0.229229 0.671455 0)
(-0.299817 0.668879 0)
(-0.356291 0.619938 0)
(-0.399866 0.538611 0)
(-0.433225 0.434066 0)
(-0.459364 0.311851 0)
(-0.480737 0.175136 0)
(-0.498673 0.0258826 0)
(-0.512886 -0.133983 0)
(-0.520982 -0.301185 0)
(-0.518061 -0.469271 0)
(-0.496744 -0.62619 0)
(-0.448219 -0.751512 0)
(-0.364912 -0.81436 0)
(-0.246533 -0.774517 0)
(-0.114938 -0.591076 0)
(-0.0251704 -0.243771 0)
(-0.0187733 0.229393 0)
(-0.0796008 0.53089 0)
(-0.164513 0.69017 0)
(-0.239431 0.743253 0)
(-0.293134 0.724936 0)
(-0.327277 0.660828 0)
(-0.34686 0.56766 0)
(-0.357584 0.455363 0)
(-0.364767 0.329129 0)
(-0.372685 0.191107 0)
(-0.384176 0.041726 0)
(-0.400238 -0.11915 0)
(-0.419442 -0.290898 0)
(-0.437137 -0.470196 0)
(-0.44472 -0.647985 0)
(-0.429613 -0.805051 0)
(-0.376951 -0.906847 0)
(-0.276163 -0.900317 0)
(-0.141515 -0.719674 0)
(-0.0346563 -0.313046 0)
(-0.0275098 0.27936 0)
(-0.101513 0.615267 0)
(-0.186118 0.76767 0)
(-0.242902 0.797949 0)
(-0.266274 0.755711 0)
(-0.264941 0.672987 0)
(-0.249047 0.568394 0)
(-0.227661 0.451618 0)
(-0.208271 0.326737 0)
(-0.196664 0.194443 0)
(-0.196971 0.0534452 0)
(-0.211557 -0.0985747 0)
(-0.24051 -0.263964 0)
(-0.280587 -0.443463 0)
(-0.323656 -0.633072 0)
(-0.35502 -0.818336 0)
(-0.352738 -0.965443 0)
(-0.29247 -1.01094 0)
(-0.171695 -0.858289 0)
(-0.0484239 -0.40134 0)
(-0.0427659 0.348542 0)
(-0.134049 0.707857 0)
(-0.206652 0.830167 0)
(-0.225364 0.820363 0)
(-0.198576 0.745766 0)
(-0.145669 0.64297 0)
(-0.0825004 0.530026 0)
(-0.0208179 0.41449 0)
(0.0308044 0.298224 0)
(0.066134 0.180038 0)
(0.0805747 0.0569771 0)
(0.0708184 -0.075105 0)
(0.0350569 -0.221151 0)
(-0.0260301 -0.386059 0)
(-0.107184 -0.572311 0)
(-0.19511 -0.774128 0)
(-0.264125 -0.965499 0)
(-0.275719 -1.08092 0)
(-0.199402 -0.993791 0)
(-0.0668924 -0.514073 0)
(-0.0658495 0.4515 0)
(-0.172576 0.800878 0)
(-0.202496 0.853791 0)
(-0.148365 0.784721 0)
(-0.0458642 0.674182 0)
(0.0738462 0.556147 0)
(0.191631 0.443329 0)
(0.295893 0.338528 0)
(0.379457 0.240278 0)
(0.437593 0.145361 0)
(0.466685 0.0496281 0)
(0.463464 -0.051969 0)
(0.4248 -0.165693 0)
(0.348201 -0.299302 0)
(0.233647 -0.46137 0)
(0.0879529 -0.657344 0)
(-0.0673642 -0.877539 0)
(-0.187002 -1.07096 0)
(-0.204281 -1.09812 0)
(-0.0848179 -0.658321 0)
(-0.0848893 0.606735 0)
(-0.180711 0.860751 0)
(-0.0981702 0.787547 0)
(0.0789637 0.651068 0)
(0.277822 0.517608 0)
(0.466263 0.402319 0)
(0.630933 0.306415 0)
(0.766107 0.226135 0)
(0.869628 0.156649 0)
(0.940585 0.093402 0)
(0.977899 0.0321127 0)
(0.979553 -0.0317413 0)
(0.942096 -0.10373 0)
(0.860392 -0.191641 0)
(0.72818 -0.306762 0)
(0.541088 -0.463888 0)
(0.304063 -0.675109 0)
(0.0475731 -0.926673 0)
(-0.131416 -1.11027 0)
(-0.0750159 -0.826502 0)
(-0.000750608 0.747093 0)
(0.00852576 0.780952 0)
(0.31081 0.568185 0)
(0.640661 0.401484 0)
(0.914385 0.285355 0)
(1.13268 0.203336 0)
(1.30382 0.144573 0)
(1.43401 0.101004 0)
(1.52838 0.0667639 0)
(1.59062 0.0377848 0)
(1.62254 0.0110626 0)
(1.62398 -0.0160683 0)
(1.59237 -0.0467566 0)
(1.52199 -0.0857326 0)
(1.40279 -0.141322 0)
(1.21946 -0.228762 0)
(0.950092 -0.373771 0)
(0.573646 -0.607633 0)
(0.174135 -0.906217 0)
(0.080399 -0.886127 0)
(0.817622 0.40032 0)
(1.06368 0.352923 0)
(1.49334 0.217755 0)
(1.81898 0.131323 0)
(2.02143 0.0810167 0)
(2.15363 0.0508078 0)
(2.24466 0.0322102 0)
(2.30748 0.0202892 0)
(2.34937 0.0120677 0)
(2.37466 0.00580035 0)
(2.38559 0.000424783 0)
(2.38274 -0.00482205 0)
(2.36517 -0.0107673 0)
(2.32984 -0.0186637 0)
(2.27011 -0.0310295 0)
(2.1724 -0.0534772 0)
(2.00525 -0.0985643 0)
(1.69446 -0.191318 0)
(1.21341 -0.354376 0)
(0.889285 -0.425471 0)
)
;

boundaryField
{
    movingWall
    {
        type            fixedValue;
        value           uniform (2.8 0 0);
    }
    fixedWalls
    {
        type            noSlip;
    }
    frontAndBack
    {
        type            empty;
    }
}


// ************************************************************************* //
