/*--------------------------------*- C++ -*----------------------------------*\
  =========                 |
  \\      /  F ield         | OpenFOAM: The Open Source CFD Toolbox
   \\    /   O peration     | Website:  https://openfoam.org
    \\  /    A nd           | Version:  8
     \\/     M anipulation  |
\*---------------------------------------------------------------------------*/
FoamFile
{
    version     2.0;
    format      ascii;
    class       surfaceScalarField;
    location    "0.5";
    object      phi;
}
// * * * * * * * * * * * * * * * * * * * * * * * * * * * * * * * * * * * * * //

dimensions      [0 3 -1 0 0 0 0];

internalField   nonuniform List<scalar> 
760
(
5.02874e-08
-5.05897e-08
-9.95609e-08
1.49848e-07
-4.58782e-07
3.59221e-07
-9.60064e-07
5.01282e-07
-1.53054e-06
5.70479e-07
-2.10519e-06
5.74652e-07
-2.62868e-06
5.23484e-07
-3.05443e-06
4.25756e-07
-3.34376e-06
2.8932e-07
-3.46648e-06
1.22725e-07
-3.40367e-06
-6.28079e-08
-3.15171e-06
-2.51955e-07
-2.72665e-06
-4.25058e-07
-2.16729e-06
-5.59361e-07
-1.53538e-06
-6.31915e-07
-9.11416e-07
-6.23969e-07
-3.85014e-07
-5.26404e-07
-3.96582e-08
-3.45354e-07
7.27027e-08
-1.12355e-07
7.27076e-08
-1.4666e-07
9.60703e-08
-7.32425e-07
7.35614e-07
-1.72235e-06
1.34915e-06
-2.99311e-06
1.77204e-06
-4.39887e-06
1.97624e-06
-5.79756e-06
1.97334e-06
-7.06111e-06
1.78704e-06
-8.07901e-06
1.44365e-06
-8.76025e-06
9.70559e-07
-9.03691e-06
3.99384e-07
-8.87016e-06
-2.29563e-07
-8.2579e-06
-8.64211e-07
-7.24224e-06
-1.44072e-06
-5.91376e-06
-1.88784e-06
-4.40971e-06
-2.13597e-06
-2.90306e-06
-2.13061e-06
-1.58057e-06
-1.8489e-06
-6.0948e-07
-1.31645e-06
-9.30145e-08
-6.28824e-07
-2.03021e-08
-3.80927e-07
4.76997e-07
-1.43592e-06
1.79061e-06
-3.02588e-06
2.9391e-06
-4.96706e-06
3.71321e-06
-7.06106e-06
4.07024e-06
-9.11571e-06
4.02799e-06
-1.0956e-05
3.62734e-06
-1.24297e-05
2.91735e-06
-1.34116e-05
1.95243e-06
-1.3809e-05
7.96838e-07
-1.35701e-05
-4.68505e-07
-1.26929e-05
-1.7414e-06
-1.12347e-05
-2.89894e-06
-9.31693e-06
-3.80558e-06
-7.1232e-06
-4.32969e-06
-4.88562e-06
-4.36819e-06
-2.85775e-06
-3.87677e-06
-1.27451e-06
-2.8997e-06
-3.03594e-07
-1.59974e-06
-3.23895e-07
-5.94701e-07
1.0717e-06
-2.10178e-06
3.29769e-06
-4.26297e-06
5.1003e-06
-6.82151e-06
6.27175e-06
-9.52881e-06
6.77754e-06
-1.21541e-05
6.65325e-06
-1.44902e-05
5.9635e-06
-1.63578e-05
4.78486e-06
-1.76085e-05
3.20314e-06
-1.81316e-05
1.32003e-06
-1.78627e-05
-7.3745e-07
-1.67939e-05
-2.81017e-06
-1.49855e-05
-4.7074e-06
-1.25732e-05
-6.21782e-06
-9.76958e-06
-7.13335e-06
-6.852e-06
-7.28576e-06
-4.13617e-06
-6.59259e-06
-1.93362e-06
-5.10225e-06
-5.01248e-07
-3.03212e-06
-8.25144e-07
-7.86135e-07
1.85783e-06
-2.71561e-06
5.22717e-06
-5.41479e-06
7.79948e-06
-8.5501e-06
9.40706e-06
-1.18234e-05
1.00509e-05
-1.49714e-05
9.80122e-06
-1.7764e-05
8.75608e-06
-2.00036e-05
7.02445e-06
-2.1526e-05
4.72563e-06
-2.22053e-05
1.99924e-06
-2.19613e-05
-9.81427e-07
-2.07722e-05
-3.99921e-06
-1.86883e-05
-6.79138e-06
-1.58446e-05
-9.06149e-06
-1.24692e-05
-1.05087e-05
-8.87868e-06
-1.08763e-05
-5.45518e-06
-1.00161e-05
-2.60343e-06
-7.95399e-06
-6.92513e-07
-4.94304e-06
-1.51766e-06
-9.59888e-07
2.81772e-06
-3.28115e-06
7.54843e-06
-6.48301e-06
1.10013e-05
-1.01568e-05
1.30808e-05
-1.39573e-05
1.38514e-05
-1.75939e-05
1.34377e-05
-2.08205e-05
1.19828e-05
-2.3429e-05
9.63289e-06
-2.52443e-05
6.541e-06
-2.61264e-05
2.8813e-06
-2.59761e-05
-1.13171e-06
-2.47482e-05
-5.22717e-06
-2.24686e-05
-9.07097e-06
-1.92555e-05
-1.22745e-05
-1.53381e-05
-1.44261e-05
-1.10648e-05
-1.51496e-05
-6.88999e-06
-1.41909e-05
-3.33103e-06
-1.15129e-05
-8.96598e-07
-7.37747e-06
-2.41426e-06
-1.11992e-06
3.93764e-06
-3.80376e-06
1.02323e-05
-7.47023e-06
1.46678e-05
-1.16392e-05
1.72498e-05
-1.59227e-05
1.8135e-05
-2.00091e-05
1.75241e-05
-2.36445e-05
1.56182e-05
-2.66177e-05
1.26061e-05
-2.87491e-05
8.67241e-06
-2.98869e-05
4.01914e-06
-2.99105e-05
-1.10817e-06
-2.87421e-05
-6.39554e-06
-2.63687e-05
-1.14444e-05
-2.28716e-05
-1.57716e-05
-1.84607e-05
-1.8837e-05
-1.3502e-05
-2.01083e-05
-8.52238e-06
-1.91705e-05
-4.17191e-06
-1.58634e-05
-1.13532e-06
-1.04141e-05
-3.54957e-06
-1.26891e-06
5.20655e-06
-4.28692e-06
1.32503e-05
-8.37444e-06
1.87553e-05
-1.29827e-05
2.18581e-05
-1.76869e-05
2.28391e-05
-2.21626e-05
2.19998e-05
-2.61587e-05
1.96143e-05
-2.94714e-05
1.59188e-05
-3.19257e-05
1.11267e-05
-3.33643e-05
5.4577e-06
-3.36456e-05
-8.26827e-07
-3.26538e-05
-7.38739e-06
-3.03217e-05
-1.37764e-05
-2.66703e-05
-1.9423e-05
-2.18608e-05
-2.36466e-05
-1.62496e-05
-2.57195e-05
-1.04235e-05
-2.49966e-05
-5.18123e-06
-2.11057e-05
-1.43123e-06
-1.41641e-05
-4.9808e-06
-1.40947e-06
6.61603e-06
-4.73405e-06
1.65749e-05
-9.1907e-06
2.3212e-05
-1.4162e-05
2.68294e-05
-1.91929e-05
2.787e-05
-2.39584e-05
2.67653e-05
-2.82236e-05
2.38795e-05
-3.18075e-05
1.95026e-05
-3.45534e-05
1.38727e-05
-3.63102e-05
7.21446e-06
-3.69227e-05
-2.14339e-07
-3.62362e-05
-8.07384e-06
-3.41184e-05
-1.58942e-05
-3.05043e-05
-2.30372e-05
-2.54667e-05
-2.86841e-05
-1.9307e-05
-3.18792e-05
-1.26378e-05
-3.16658e-05
-6.40851e-06
-2.73349e-05
-1.80766e-06
-1.87649e-05
-6.78846e-06
-1.54721e-06
8.16324e-06
-5.1548e-06
2.01824e-05
-9.9185e-06
2.79757e-05
-1.51477e-05
3.20586e-05
-2.03656e-05
3.30878e-05
-2.52627e-05
3.16624e-05
-2.96401e-05
2.8257e-05
-3.33593e-05
2.32218e-05
-3.63022e-05
1.68156e-05
-3.83423e-05
9.25451e-06
-3.93263e-05
7.69714e-07
-3.90699e-05
-8.33027e-06
-3.73718e-05
-1.75923e-05
-3.40583e-05
-2.63507e-05
-2.90678e-05
-3.36747e-05
-2.2579e-05
-3.8368e-05
-1.51631e-05
-3.90817e-05
-7.89238e-06
-3.46057e-05
-2.29e-06
-2.43673e-05
-9.07846e-06
-1.69609e-06
9.85933e-06
-5.57549e-06
2.40619e-05
-1.05733e-05
3.29735e-05
-1.59158e-05
3.74011e-05
-2.11179e-05
3.829e-05
-2.59094e-05
3.64538e-05
-3.01534e-05
3.25011e-05
-3.37803e-05
2.68487e-05
-3.67359e-05
1.97712e-05
-3.89439e-05
1.14626e-05
-4.02781e-05
2.1039e-06
-4.05453e-05
-8.06314e-06
-3.94857e-05
-1.86518e-05
-3.6806e-05
-2.90305e-05
-3.22639e-05
-3.82168e-05
-2.58297e-05
-4.48021e-05
-1.79218e-05
-4.69897e-05
-9.65225e-06
-4.28752e-05
-2.90781e-06
-3.11117e-05
-1.19863e-05
-1.88705e-06
1.17464e-05
-6.05349e-06
2.82283e-05
-1.11989e-05
3.81189e-05
-1.64544e-05
4.26566e-05
-2.13524e-05
4.3188e-05
-2.56984e-05
4.07998e-05
-2.94532e-05
3.62559e-05
-3.26475e-05
3.0043e-05
-3.53204e-05
2.2444e-05
-3.74756e-05
1.36178e-05
-3.90462e-05
3.67446e-06
-3.98642e-05
-7.2451e-06
-3.96412e-05
-1.88748e-05
-3.79746e-05
-3.06971e-05
-3.44122e-05
-4.17791e-05
-2.86234e-05
-5.05909e-05
-2.07157e-05
-5.48974e-05
-1.16721e-05
-5.19188e-05
-3.69788e-06
-3.90859e-05
-1.56842e-05
-2.18205e-06
1.39284e-05
-6.69402e-06
3.27403e-05
-1.18724e-05
4.32972e-05
-1.67532e-05
4.75375e-05
-2.09395e-05
4.73743e-05
-2.4371e-05
4.42313e-05
-2.71536e-05
3.90385e-05
-2.94528e-05
3.23421e-05
-3.14289e-05
2.44201e-05
-3.31937e-05
1.53826e-05
-3.47731e-05
5.25384e-06
-3.60676e-05
-5.95057e-06
-3.681e-05
-1.81323e-05
-3.65325e-05
-3.09746e-05
-3.45818e-05
-4.37299e-05
-3.02548e-05
-5.49179e-05
-2.31597e-05
-6.19925e-05
-1.38683e-05
-6.12102e-05
-4.70691e-06
-4.82473e-05
-2.03911e-05
-2.69608e-06
1.66245e-05
-7.66139e-06
3.77056e-05
-1.26795e-05
4.83154e-05
-1.67433e-05
5.16012e-05
-1.96377e-05
5.02687e-05
-2.15281e-05
4.61216e-05
-2.27228e-05
4.02333e-05
-2.35547e-05
3.3174e-05
-2.43227e-05
2.51882e-05
-2.52615e-05
1.63214e-05
-2.65132e-05
6.50553e-06
-2.8088e-05
-4.37577e-06
-2.98043e-05
-1.6416e-05
-3.12116e-05
-2.95673e-05
-3.15267e-05
-4.34148e-05
-2.96706e-05
-5.67739e-05
-2.45808e-05
-6.70823e-05
-1.60239e-05
-6.97671e-05
-5.98763e-06
-5.82836e-05
-2.63787e-05
-3.62502e-06
2.02495e-05
-9.15361e-06
4.32342e-05
-1.35997e-05
5.27615e-05
-1.6117e-05
5.41184e-05
-1.68869e-05
5.10387e-05
-1.64297e-05
4.56644e-05
-1.5314e-05
3.91176e-05
-1.40524e-05
3.19124e-05
-1.30744e-05
2.42101e-05
-1.27239e-05
1.59709e-05
-1.32564e-05
7.038e-06
-1.48128e-05
-2.81933e-06
-1.73586e-05
-1.38703e-05
-2.05726e-05
-2.63533e-05
-2.36928e-05
-4.02946e-05
-2.53865e-05
-5.50802e-05
-2.38629e-05
-6.86059e-05
-1.76455e-05
-7.59845e-05
-7.56087e-06
-6.83682e-05
-3.39396e-05
-5.24277e-06
2.54923e-05
-1.12252e-05
4.92166e-05
-1.41419e-05
5.56783e-05
-1.38721e-05
5.38486e-05
-1.13533e-05
4.85199e-05
-7.59608e-06
4.19072e-05
-3.44333e-06
3.49648e-05
4.52377e-07
2.80167e-05
3.59105e-06
2.10715e-05
5.57655e-06
1.39854e-05
6.0859e-06
6.52866e-06
4.86573e-06
-1.59916e-06
1.77347e-06
-1.0778e-05
-3.11094e-06
-2.14688e-05
-9.26551e-06
-3.414e-05
-1.54015e-05
-4.89442e-05
-1.91995e-05
-6.48079e-05
-1.76533e-05
-7.75308e-05
-9.26003e-06
-7.67614e-05
-4.31996e-05
-7.72268e-06
3.3215e-05
-1.30969e-05
5.45908e-05
-1.23488e-05
5.49301e-05
-7.30461e-06
4.88044e-05
-7.3737e-08
4.12891e-05
7.84916e-06
3.39843e-05
1.54776e-05
2.73364e-05
2.21718e-05
2.13225e-05
2.74952e-05
1.57481e-05
3.11121e-05
1.03685e-05
3.27223e-05
4.91848e-06
3.20271e-05
-9.03953e-07
2.87341e-05
-7.48501e-06
2.26222e-05
-1.53569e-05
1.37471e-05
-2.5265e-05
2.88852e-06
-3.80857e-05
-7.72316e-06
-5.41962e-05
-1.37987e-05
-7.14552e-05
-1.03158e-05
-8.02443e-05
-5.35154e-05
-1.0318e-05
4.3533e-05
-1.09496e-05
5.52225e-05
-2.38586e-06
4.63664e-05
9.91328e-06
3.65053e-05
2.28398e-05
2.83625e-05
3.49396e-05
2.18845e-05
4.55289e-05
1.67471e-05
5.42837e-05
1.25677e-05
6.10326e-05
8.9991e-06
6.5639e-05
5.76209e-06
6.79335e-05
2.62394e-06
6.76712e-05
-6.41651e-07
6.44984e-05
-4.3122e-06
5.79404e-05
-8.79888e-06
4.74743e-05
-1.47989e-05
3.28689e-05
-2.34803e-05
1.51489e-05
-3.64762e-05
-1.54122e-06
-5.47651e-05
-8.47722e-06
-7.33083e-05
-6.19926e-05
-6.17421e-06
4.97072e-05
9.09019e-06
3.99581e-05
3.04326e-05
2.50239e-05
5.02749e-05
1.66631e-05
6.70748e-05
1.15626e-05
8.08123e-05
8.14703e-06
9.17702e-05
5.7892e-06
0.000100252
4.0863e-06
0.000106487
2.7634e-06
0.000110605
1.64457e-06
0.000112616
6.12384e-07
0.000112408
-4.33073e-07
0.000109688
-1.59245e-06
0.000103923
-3.03366e-06
9.42027e-05
-5.07868e-06
7.91615e-05
-8.43913e-06
5.73873e-05
-1.47019e-05
2.94613e-05
-2.68392e-05
3.60878e-06
-4.74557e-05
-5.83838e-05
4.97072e-05
8.96652e-05
0.000114689
0.000131352
0.000142915
0.000151062
0.000156851
0.000160937
0.000163701
0.000165345
0.000165958
0.000165525
0.000163932
0.000160899
0.00015582
0.000147381
0.000132679
0.00010584
5.83838e-05
)
;

boundaryField
{
    movingWall
    {
        type            calculated;
        value           uniform 0;
    }
    fixedWalls
    {
        type            calculated;
        value           uniform 0;
    }
    frontAndBack
    {
        type            empty;
        value           nonuniform List<scalar> 0();
    }
}


// ************************************************************************* //
