/*--------------------------------*- C++ -*----------------------------------*\
  =========                 |
  \\      /  F ield         | OpenFOAM: The Open Source CFD Toolbox
   \\    /   O peration     | Website:  https://openfoam.org
    \\  /    A nd           | Version:  8
     \\/     M anipulation  |
\*---------------------------------------------------------------------------*/
FoamFile
{
    version     2.0;
    format      ascii;
    class       volScalarField;
    location    "0.1";
    object      p;
}
// * * * * * * * * * * * * * * * * * * * * * * * * * * * * * * * * * * * * * //

dimensions      [0 2 -2 0 0 0 0];

internalField   nonuniform List<scalar> 
400
(
-8.57581e-08
-0.00919902
-0.0203585
-0.0288049
-0.031869
-0.0283862
-0.0182667
-0.00216735
0.0187302
0.0428556
0.0683471
0.093151
0.115156
0.132385
0.143238
0.146807
0.143212
0.133964
0.122256
0.113102
0.00906828
-0.000408663
-0.00913388
-0.0148997
-0.016466
-0.0130244
-0.00445899
0.00877081
0.0257823
0.0453629
0.0660461
0.0862013
0.104154
0.118349
0.127555
0.131092
0.12909
0.12263
0.113428
0.104059
0.0208163
0.00772076
-0.00167795
-0.00693705
-0.00817563
-0.00499144
0.0026186
0.0142279
0.0290965
0.0462179
0.0643591
0.0821254
0.0980601
0.110784
0.119166
0.122518
0.120823
0.114751
0.10472
0.0916863
0.0312276
0.0132061
0.00158145
-0.00438374
-0.00594826
-0.00307447
0.00407964
0.0150349
0.0290957
0.0453551
0.0626956
0.079823
0.0953416
0.107873
0.116208
0.119489
0.11747
0.110462
0.0978627
0.0796643
0.0375741
0.0144197
0.000149887
-0.00687049
-0.00888316
-0.00616395
0.000971164
0.0119674
0.0261346
0.0426168
0.0603527
0.0780774
0.0943708
0.107756
0.116838
0.120496
0.118191
0.109899
0.0941468
0.0702947
0.0378051
0.0095302
-0.00746491
-0.0155593
-0.0178812
-0.0149829
-0.00732785
0.00444718
0.0196399
0.0374183
0.0567418
0.0763285
0.0946726
0.11012
0.120996
0.125815
0.123671
0.114174
0.0950296
0.0651384
0.0301442
-0.00324566
-0.0228863
-0.0318504
-0.0341333
-0.0305565
-0.0217278
-0.00836542
0.00881353
0.0289954
0.0511501
0.0739574
0.0957883
0.114749
0.128794
0.135955
0.134839
0.124593
0.102006
0.0655564
0.0127892
-0.0257656
-0.0478451
-0.057259
-0.0589402
-0.0540114
-0.0432359
-0.027411
-0.007255
0.0164566
0.0427237
0.0702015
0.097132
0.121343
0.14033
0.151503
0.152805
0.142721
0.116858
0.073157
-0.0162999
-0.060142
-0.0843116
-0.0934994
-0.0937541
-0.0865834
-0.0729377
-0.0536902
-0.0295306
-0.00114886
0.030542
0.0642273
0.0980575
0.12958
0.15576
0.173228
0.179014
0.170618
0.141977
0.090196
-0.0595847
-0.108909
-0.134584
-0.142479
-0.140095
-0.129478
-0.111822
-0.0880729
-0.0588413
-0.0246522
0.0137683
0.055243
0.0979288
0.139149
0.175314
0.202112
0.215355
0.21107
0.180723
0.120006
-0.120203
-0.17525
-0.201384
-0.206246
-0.199382
-0.183623
-0.160488
-0.130982
-0.0955602
-0.0544635
-0.00808125
0.0427185
0.0962766
0.149844
0.199337
0.239398
0.264273
0.267849
0.237888
0.167581
-0.202449
-0.263376
-0.287985
-0.286881
-0.272658
-0.249295
-0.21872
-0.181948
-0.139161
-0.090143
-0.0347408
0.0267293
0.0930689
0.16174
0.228389
0.286645
0.328895
0.346054
0.320349
0.24049
-0.312805
-0.379185
-0.398365
-0.386268
-0.360157
-0.32559
-0.284927
-0.239061
-0.187687
-0.129896
-0.0647245
0.00837749
0.0890563
0.175439
0.263366
0.345779
0.413132
0.452499
0.438052
0.350506
-0.462208
-0.531411
-0.537284
-0.5056
-0.460583
-0.409681
-0.355471
-0.298381
-0.237254
-0.170147
-0.094951
-0.0098826
0.0860275
0.192205
0.305483
0.418934
0.521556
0.596034
0.605492
0.51674
-0.670988
-0.733439
-0.70989
-0.644196
-0.569873
-0.495795
-0.423936
-0.353489
-0.281819
-0.20546
-0.120778
-0.0243454
0.0866349
0.213668
0.355754
0.507663
0.65852
0.787282
0.843683
0.771578
-0.97804
-1.00537
-0.920346
-0.797571
-0.679607
-0.574224
-0.480752
-0.395614
-0.313663
-0.22926
-0.13683
-0.0309545
0.0934638
0.240831
0.413822
0.611447
0.826353
1.03706
1.18134
1.16952
-1.45796
-1.37491
-1.16941
-0.956173
-0.776743
-0.631904
-0.51448
-0.415383
-0.325373
-0.235902
-0.139089
-0.0273192
0.107122
0.27229
0.476309
0.72604
1.02318
1.35305
1.65424
1.80147
-2.28471
-1.87553
-1.43942
-1.09506
-0.838319
-0.65058
-0.512181
-0.404461
-0.312227
-0.223487
-0.128097
-0.0164381
0.121684
0.298369
0.52895
0.83262
1.22797
1.72291
2.3076
2.86337
-3.93126
-2.52053
-1.6176
-1.11327
-0.794043
-0.585271
-0.447137
-0.348742
-0.268866
-0.193164
-0.110608
-0.0110233
0.116726
0.287313
0.522702
0.857032
1.3371
2.03751
3.16866
4.84447
-6.81463
-3.14927
-1.48117
-0.862233
-0.561445
-0.394393
-0.300455
-0.241802
-0.19606
-0.150281
-0.0954832
-0.0238251
0.0737863
0.210018
0.406801
0.70595
1.18731
2.05484
4.01596
7.97721
)
;

boundaryField
{
    movingWall
    {
        type            zeroGradient;
    }
    fixedWalls
    {
        type            zeroGradient;
    }
    frontAndBack
    {
        type            empty;
    }
}


// ************************************************************************* //
