/*--------------------------------*- C++ -*----------------------------------*\
  =========                 |
  \\      /  F ield         | OpenFOAM: The Open Source CFD Toolbox
   \\    /   O peration     | Website:  https://openfoam.org
    \\  /    A nd           | Version:  8
     \\/     M anipulation  |
\*---------------------------------------------------------------------------*/
FoamFile
{
    version     2.0;
    format      ascii;
    class       volVectorField;
    location    "0.1";
    object      U;
}
// * * * * * * * * * * * * * * * * * * * * * * * * * * * * * * * * * * * * * //

dimensions      [0 1 -1 0 0 0 0];

internalField   nonuniform List<vector> 
400
(
(0.000392236 -0.000389118 0)
(0.000199977 0.000183995 0)
(-0.0018877 0.000892246 0)
(-0.00550653 0.00138746 0)
(-0.0100374 0.0016343 0)
(-0.0148682 0.00165975 0)
(-0.0194578 0.00150259 0)
(-0.0233577 0.00120175 0)
(-0.0262164 0.000792943 0)
(-0.0277797 0.000310464 0)
(-0.0278946 -0.000209313 0)
(-0.0265203 -0.000724806 0)
(-0.023743 -0.00118765 0)
(-0.0197897 -0.00154334 0)
(-0.0150368 -0.00173449 0)
(-0.0100032 -0.00170743 0)
(-0.00532011 -0.00142325 0)
(-0.00166772 -0.000874221 0)
(0.000337042 -0.000132658 0)
(0.000429567 0.00041975 0)
(-0.000136697 -0.000242104 0)
(-0.00258228 0.00262091 0)
(-0.00902304 0.00569914 0)
(-0.0184848 0.00789191 0)
(-0.0297156 0.00898173 0)
(-0.041461 0.00900973 0)
(-0.0525313 0.0081108 0)
(-0.0618944 0.00645488 0)
(-0.0687244 0.00422249 0)
(-0.0724239 0.0016027 0)
(-0.0726435 -0.00119937 0)
(-0.0693072 -0.00395487 0)
(-0.0626395 -0.00640937 0)
(-0.0531853 -0.00829078 0)
(-0.0418132 -0.00932992 0)
(-0.0296824 -0.00929693 0)
(-0.0181484 -0.00805662 0)
(-0.0085979 -0.0056433 0)
(-0.00229318 -0.00241465 0)
(-4.94573e-05 0.000388266 0)
(-0.000852755 0.00177404 0)
(-0.00590359 0.00909414 0)
(-0.0167466 0.0160937 0)
(-0.03151 0.021019 0)
(-0.0483848 0.0233875 0)
(-0.0656961 0.023224 0)
(-0.08184 0.0207951 0)
(-0.0954074 0.016485 0)
(-0.105265 0.0107331 0)
(-0.11059 0.00401846 0)
(-0.110907 -0.00313424 0)
(-0.106114 -0.0101462 0)
(-0.0965218 -0.0163866 0)
(-0.0828732 -0.0211971 0)
(-0.0663464 -0.0239452 0)
(-0.0485068 -0.0241135 0)
(-0.031177 -0.0214279 0)
(-0.0162261 -0.0160171 0)
(-0.00551258 -0.00865548 0)
(-0.000725708 -0.00142223 0)
(-0.00148866 0.00557689 0)
(-0.00903689 0.0193405 0)
(-0.0241787 0.0313447 0)
(-0.0439827 0.0395077 0)
(-0.0660265 0.0432022 0)
(-0.0882662 0.0424982 0)
(-0.108789 0.0378459 0)
(-0.125931 0.0298997 0)
(-0.138357 0.0194239 0)
(-0.145099 0.00726107 0)
(-0.145591 -0.00566459 0)
(-0.139697 -0.0183379 0)
(-0.127757 -0.0296601 0)
(-0.110618 -0.038491 0)
(-0.0896454 -0.04374 0)
(-0.0666852 -0.0445147 0)
(-0.0439329 -0.0403283 0)
(-0.023718 -0.0313409 0)
(-0.00859401 -0.018658 0)
(-0.0013259 -0.00495458 0)
(-0.0020475 0.01098 0)
(-0.0119525 0.0331289 0)
(-0.0312663 0.0511344 0)
(-0.0559489 0.0628815 0)
(-0.0829155 0.0677958 0)
(-0.109757 0.0661214 0)
(-0.134301 0.0585776 0)
(-0.1547 0.0461499 0)
(-0.169491 0.0299727 0)
(-0.177611 0.0112903 0)
(-0.178421 -0.00853789 0)
(-0.171733 -0.028022 0)
(-0.157865 -0.0455473 0)
(-0.137681 -0.0594272 0)
(-0.112641 -0.0680274 0)
(-0.0848004 -0.0699724 0)
(-0.0566975 -0.0644333 0)
(-0.0311651 -0.0514543 0)
(-0.011567 -0.0323041 0)
(-0.00186394 -0.0100596 0)
(-0.00256898 0.0178702 0)
(-0.0147541 0.0503515 0)
(-0.038161 0.0753872 0)
(-0.0676208 0.0910491 0)
(-0.0993546 0.0970305 0)
(-0.130586 0.0939178 0)
(-0.158923 0.0828163 0)
(-0.182389 0.065116 0)
(-0.199449 0.0423614 0)
(-0.208992 0.0162148 0)
(-0.210317 -0.0115247 0)
(-0.203163 -0.0388868 0)
(-0.187763 -0.0637192 0)
(-0.164922 -0.0837376 0)
(-0.136103 -0.0966676 0)
(-0.103498 -0.100505 0)
(-0.0699722 -0.0938886 0)
(-0.0389148 -0.0765353 0)
(-0.0146255 -0.0496807 0)
(-0.00239906 -0.0166964 0)
(-0.00309012 0.0262105 0)
(-0.0175574 0.0709678 0)
(-0.0450425 0.104055 0)
(-0.0792037 0.123922 0)
(-0.115541 0.130763 0)
(-0.150925 0.125707 0)
(-0.182791 0.11039 0)
(-0.209102 0.0866907 0)
(-0.228323 0.0565959 0)
(-0.239338 0.0221806 0)
(-0.241408 -0.0143438 0)
(-0.234178 -0.0505568 0)
(-0.217736 -0.0837793 0)
(-0.192727 -0.111094 0)
(-0.160508 -0.129486 0)
(-0.123308 -0.13614 0)
(-0.0842682 -0.128909 0)
(-0.04737 -0.106892 0)
(-0.0179949 -0.0710466 0)
(-0.002994 -0.0249562 0)
(-0.003643 0.0360309 0)
(-0.0204675 0.0950104 0)
(-0.0520659 0.137106 0)
(-0.0908248 0.161362 0)
(-0.131493 0.168748 0)
(-0.170627 0.161181 0)
(-0.20557 0.140998 0)
(-0.234327 0.110658 0)
(-0.255455 0.0726141 0)
(-0.267912 0.0293217 0)
(-0.270956 -0.0166608 0)
(-0.264128 -0.0625374 0)
(-0.247308 -0.105157 0)
(-0.220866 -0.140969 0)
(-0.185897 -0.166126 0)
(-0.144505 -0.17679 0)
(-0.0999894 -0.169701 0)
(-0.0569121 -0.142945 0)
(-0.0219024 -0.096846 0)
(-0.00371165 -0.0350617 0)
(-0.00425995 0.0474204 0)
(-0.0235867 0.122577 0)
(-0.0593568 0.174503 0)
(-0.10251 0.203123 0)
(-0.147009 0.210547 0)
(-0.189174 0.199784 0)
(-0.226389 0.174079 0)
(-0.256853 0.136571 0)
(-0.279356 0.0901864 0)
(-0.293039 0.0376956 0)
(-0.297227 -0.0181071 0)
(-0.291366 -0.0741816 0)
(-0.275072 -0.127021 0)
(-0.248304 -0.172501 0)
(-0.211688 -0.205885 0)
(-0.166956 -0.222095 0)
(-0.117334 -0.216349 0)
(-0.0678601 -0.18517 0)
(-0.0265753 -0.127694 0)
(-0.00462027 -0.047366 0)
(-0.0049864 0.0605317 0)
(-0.0270463 0.15382 0)
(-0.0670427 0.216141 0)
(-0.11419 0.248739 0)
(-0.161636 0.255371 0)
(-0.205609 0.240539 0)
(-0.243747 0.208641 0)
(-0.27466 0.163597 0)
(-0.297569 0.108786 0)
(-0.311954 0.0471913 0)
(-0.317312 -0.0183225 0)
(-0.313038 -0.0846711 0)
(-0.298446 -0.148193 0)
(-0.272947 -0.204338 0)
(-0.236442 -0.247506 0)
(-0.189933 -0.271189 0)
(-0.136187 -0.268608 0)
(-0.0804411 -0.233965 0)
(-0.0322567 -0.164338 0)
(-0.00580597 -0.0623581 0)
(-0.00590428 0.0756163 0)
(-0.0310636 0.188959 0)
(-0.0753043 0.261783 0)
(-0.125706 0.297377 0)
(-0.174615 0.301889 0)
(-0.218433 0.281839 0)
(-0.255378 0.243059 0)
(-0.284772 0.190333 0)
(-0.30652 0.127437 0)
(-0.320639 0.0574133 0)
(-0.32694 -0.0170285 0)
(-0.324856 -0.0930333 0)
(-0.313402 -0.167083 0)
(-0.291327 -0.234478 0)
(-0.257535 -0.28892 0)
(-0.211838 -0.322384 0)
(-0.155945 -0.325598 0)
(-0.0947441 -0.289447 0)
(-0.0392349 -0.207595 0)
(-0.00739503 -0.0806914 0)
(-0.00717404 0.0931086 0)
(-0.0360293 0.228304 0)
(-0.0844272 0.310946 0)
(-0.136763 0.347618 0)
(-0.184738 0.347966 0)
(-0.225401 0.321196 0)
(-0.258027 0.274859 0)
(-0.283043 0.214635 0)
(-0.301328 0.144572 0)
(-0.313649 0.0675565 0)
(-0.320301 -0.0141322 0)
(-0.320879 -0.0982057 0)
(-0.314174 -0.181687 0)
(-0.298239 -0.260157 0)
(-0.270746 -0.326991 0)
(-0.229805 -0.37278 0)
(-0.175237 -0.385369 0)
(-0.110616 -0.351121 0)
(-0.0478814 -0.258254 0)
(-0.00959284 -0.103248 0)
(-0.00910921 0.113799 0)
(-0.0426282 0.272295 0)
(-0.0947965 0.36269 0)
(-0.146726 0.397107 0)
(-0.189987 0.390304 0)
(-0.223097 0.354951 0)
(-0.247057 0.30052 0)
(-0.263848 0.233482 0)
(-0.275593 0.157926 0)
(-0.283989 0.0763049 0)
(-0.289952 -0.00984315 0)
(-0.293394 -0.0991613 0)
(-0.293045 -0.189674 0)
(-0.286368 -0.277822 0)
(-0.269734 -0.357297 0)
(-0.239104 -0.417815 0)
(-0.19142 -0.444285 0)
(-0.127422 -0.417335 0)
(-0.0586833 -0.316875 0)
(-0.0127501 -0.131266 0)
(-0.0123 0.139136 0)
(-0.0519634 0.321455 0)
(-0.106674 0.415152 0)
(-0.154008 0.441961 0)
(-0.186709 0.423963 0)
(-0.206104 0.37799 0)
(-0.215761 0.315362 0)
(-0.219609 0.242978 0)
(-0.221154 0.164575 0)
(-0.223046 0.0818252 0)
(-0.226867 -0.00476724 0)
(-0.232975 -0.0950963 0)
(-0.240286 -0.188625 0)
(-0.246001 -0.28331 0)
(-0.24544 -0.374087 0)
(-0.232288 -0.450847 0)
(-0.199683 -0.496231 0)
(-0.143477 -0.484377 0)
(-0.0721885 -0.383343 0)
(-0.0174549 -0.16654 0)
(-0.0177591 0.171682 0)
(-0.0654923 0.376006 0)
(-0.119308 0.464577 0)
(-0.154512 0.475857 0)
(-0.16788 0.441823 0)
(-0.165484 0.383623 0)
(-0.154242 0.313729 0)
(-0.140132 0.238679 0)
(-0.127832 0.161249 0)
(-0.120673 0.081966 0)
(-0.120734 9.28803e-05 0)
(-0.128851 -0.0856681 0)
(-0.144424 -0.176482 0)
(-0.164969 -0.272394 0)
(-0.185499 -0.37067 0)
(-0.197994 -0.463048 0)
(-0.191477 -0.531749 0)
(-0.154714 -0.545073 0)
(-0.0885462 -0.455854 0)
(-0.0245609 -0.21161 0)
(-0.0268164 0.215802 0)
(-0.0839823 0.434583 0)
(-0.128164 0.503315 0)
(-0.138047 0.488678 0)
(-0.1198 0.434216 0)
(-0.0862833 0.363968 0)
(-0.0478482 0.289778 0)
(-0.0118546 0.216479 0)
(0.01668 0.145124 0)
(0.034454 0.0747985 0)
(0.0393651 0.00353366 0)
(0.0302504 -0.0712219 0)
(0.00697515 -0.152227 0)
(-0.0290546 -0.24182 0)
(-0.0738668 -0.34052 0)
(-0.119401 -0.444001 0)
(-0.15179 -0.537424 0)
(-0.151654 -0.586747 0)
(-0.105675 -0.528883 0)
(-0.0347068 -0.270023 0)
(-0.039657 0.279187 0)
(-0.10317 0.490613 0)
(-0.117493 0.515499 0)
(-0.0808764 0.46436 0)
(-0.016544 0.388912 0)
(0.0558273 0.311165 0)
(0.124418 0.239109 0)
(0.18251 0.174188 0)
(0.226377 0.115109 0)
(0.253909 0.0595245 0)
(0.263714 0.00459918 0)
(0.25467 -0.0528981 0)
(0.225838 -0.11666 0)
(0.176843 -0.190806 0)
(0.108978 -0.279245 0)
(0.0274653 -0.383331 0)
(-0.0548366 -0.495757 0)
(-0.113222 -0.588227 0)
(-0.11406 -0.589139 0)
(-0.0459538 -0.347074 0)
(-0.0478534 0.370147 0)
(-0.0996563 0.521658 0)
(-0.0429366 0.470536 0)
(0.0677482 0.38044 0)
(0.187614 0.294061 0)
(0.297539 0.221217 0)
(0.3901 0.162226 0)
(0.462753 0.114202 0)
(0.515145 0.0737267 0)
(0.547542 0.0376686 0)
(0.559966 0.00315167 0)
(0.551775 -0.0327606 0)
(0.521471 -0.0734982 0)
(0.466716 -0.123504 0)
(0.384932 -0.188648 0)
(0.27519 -0.275711 0)
(0.142166 -0.38867 0)
(0.00472584 -0.517509 0)
(-0.0839102 -0.604897 0)
(-0.0447991 -0.442572 0)
(0.00833444 0.442717 0)
(0.0222834 0.463426 0)
(0.206871 0.333611 0)
(0.403513 0.22994 0)
(0.562406 0.158299 0)
(0.685214 0.108954 0)
(0.778032 0.0746009 0)
(0.845623 0.0498231 0)
(0.891868 0.0308185 0)
(0.919493 0.0149984 0)
(0.929891 0.000453392 0)
(0.923096 -0.0145205 0)
(0.897625 -0.0319264 0)
(0.850129 -0.0546744 0)
(0.774979 -0.0875758 0)
(0.664136 -0.138706 0)
(0.506669 -0.220467 0)
(0.294073 -0.34715 0)
(0.0767584 -0.505599 0)
(0.0347942 -0.488837 0)
(0.475205 0.23208 0)
(0.625053 0.203379 0)
(0.878911 0.122857 0)
(1.06613 0.0718022 0)
(1.17893 0.0427436 0)
(1.2503 0.0258752 0)
(1.29777 0.0158479 0)
(1.32928 0.00961225 0)
(1.34926 0.00541073 0)
(1.36031 0.00224486 0)
(1.36369 -0.000493799 0)
(1.35965 -0.00326259 0)
(1.34747 -0.00659143 0)
(1.32512 -0.0113161 0)
(1.28837 -0.0190647 0)
(1.22903 -0.0332007 0)
(1.1285 -0.0605887 0)
(0.946193 -0.114089 0)
(0.674785 -0.204175 0)
(0.49874 -0.240608 0)
)
;

boundaryField
{
    movingWall
    {
        type            fixedValue;
        value           uniform (1.6 0 0);
    }
    fixedWalls
    {
        type            noSlip;
    }
    frontAndBack
    {
        type            empty;
    }
}


// ************************************************************************* //
