/*--------------------------------*- C++ -*----------------------------------*\
  =========                 |
  \\      /  F ield         | OpenFOAM: The Open Source CFD Toolbox
   \\    /   O peration     | Website:  https://openfoam.org
    \\  /    A nd           | Version:  8
     \\/     M anipulation  |
\*---------------------------------------------------------------------------*/
FoamFile
{
    version     2.0;
    format      ascii;
    class       volScalarField;
    location    "0.4";
    object      p;
}
// * * * * * * * * * * * * * * * * * * * * * * * * * * * * * * * * * * * * * //

dimensions      [0 2 -2 0 0 0 0];

internalField   nonuniform List<scalar> 
400
(
-5.66678e-06
-0.0281623
-0.0613743
-0.0862954
-0.0959646
-0.0874588
-0.0603439
-0.0157715
0.0438553
0.114835
0.192044
0.268995
0.338277
0.392442
0.425324
0.433573
0.41813
0.385271
0.346823
0.319315
0.0279763
-0.00121542
-0.0271501
-0.0440717
-0.0492842
-0.0408326
-0.0182053
0.0179258
0.0658925
0.122938
0.185097
0.24726
0.303534
0.347999
0.375785
0.384298
0.374341
0.350542
0.320096
0.292208
0.0631324
0.0228626
-0.00482755
-0.0199649
-0.0242063
-0.0168423
0.00235734
0.032918
0.0737204
0.122756
0.17688
0.231767
0.282182
0.322639
0.348398
0.356633
0.347545
0.324483
0.290974
0.251769
0.0921103
0.0371606
0.00334024
-0.0135956
-0.0191053
-0.0136126
0.00278446
0.0297308
0.0665749
0.111933
0.163256
0.216614
0.266846
0.308147
0.33507
0.343803
0.33355
0.306621
0.263928
0.208119
0.105209
0.0355916
-0.00533567
-0.0252773
-0.0329833
-0.0297821
-0.015964
0.0083265
0.0429618
0.087202
0.13905
0.194844
0.249229
0.295653
0.327386
0.339003
0.328229
0.296244
0.241823
0.166744
0.0947528
0.0114421
-0.0365571
-0.0599282
-0.070275
-0.0696053
-0.0582246
-0.0359145
-0.00214914
0.0430884
0.0984406
0.16053
0.2237
0.280341
0.32188
0.340539
0.331838
0.295388
0.227798
0.130718
0.0542417
-0.0414986
-0.0961018
-0.12293
-0.136122
-0.138195
-0.129307
-0.108698
-0.0749907
-0.0271881
0.0342343
0.106395
0.183421
0.256467
0.314577
0.346692
0.345023
0.306644
0.225231
0.102564
-0.0221175
-0.128922
-0.189396
-0.219423
-0.235498
-0.240581
-0.234561
-0.215956
-0.182282
-0.131216
-0.0619219
0.0236765
0.119851
0.216595
0.300121
0.354992
0.368523
0.333501
0.238844
0.0860866
-0.139578
-0.256125
-0.321524
-0.354153
-0.372899
-0.381232
-0.37874
-0.36306
-0.330314
-0.276401
-0.198553
-0.0969984
0.0234215
0.152007
0.271974
0.362387
0.403562
0.381204
0.276111
0.0882124
-0.302875
-0.428063
-0.497072
-0.531016
-0.551564
-0.562988
-0.564663
-0.553247
-0.523173
-0.46805
-0.382411
-0.263764
-0.114903
0.0538283
0.223073
0.365583
0.452244
0.457651
0.348912
0.121222
-0.516409
-0.649577
-0.72002
-0.752453
-0.772416
-0.785597
-0.791396
-0.785454
-0.760241
-0.706548
-0.615379
-0.480324
-0.30056
-0.0843361
0.147789
0.362316
0.5185
0.574666
0.475764
0.205918
-0.785054
-0.926108
-0.993819
-1.01881
-1.03284
-1.04405
-1.05221
-1.05191
-1.03336
-0.984049
-0.890646
-0.741624
-0.530781
-0.261911
0.0457938
0.354273
0.61019
0.75005
0.685
0.376549
-1.11644
-1.26534
-1.32174
-1.32764
-1.32537
-1.32697
-1.33278
-1.33612
-1.32455
-1.28169
-1.18924
-1.02956
-0.789454
-0.465649
-0.0722854
0.351947
0.74288
1.01091
1.01951
0.688944
-1.52653
-1.68038
-1.7074
-1.67272
-1.63633
-1.61532
-1.61019
-1.61217
-1.60536
-1.56886
-1.47885
-1.31096
-1.04391
-0.665092
-0.179385
0.38018
0.94467
1.39825
1.5439
1.23453
-2.05246
-2.19536
-2.1546
-2.04213
-1.94411
-1.88168
-1.85325
-1.84605
-1.83913
-1.80607
-1.71703
-1.54066
-1.2472
-0.813349
-0.230971
0.480479
1.25876
1.9701
2.35242
2.16144
-2.77906
-2.85365
-2.66538
-2.41506
-2.21756
-2.09052
-2.02475
-1.9996
-1.98655
-1.95213
-1.85988
-1.67152
-1.34878
-0.857316
-0.173217
0.705724
1.74004
2.79828
3.57013
3.69394
-3.89489
-3.72764
-3.23817
-2.76257
-2.41906
-2.20333
-2.08849
-2.0395
-2.01634
-1.97679
-1.87717
-1.67233
-1.31565
-0.761163
0.0335638
1.10047
2.44076
3.95757
5.35276
6.16388
-5.87713
-4.9176
-3.8368
-3.02862
-2.49515
-2.17608
-2.01235
-1.94451
-1.91628
-1.87542
-1.77147
-1.55323
-1.16613
-0.551666
0.355808
1.62965
3.33548
5.46788
7.9199
10.2519
-10.089
-6.45778
-4.14497
-2.93524
-2.25013
-1.87858
-1.71578
-1.67178
-1.67311
-1.66036
-1.58007
-1.37857
-0.998081
-0.369966
0.594445
2.02113
4.08611
7.02747
11.4117
17.4719
-18.2355
-7.92818
-3.47041
-2.02605
-1.42421
-1.16825
-1.1263
-1.19413
-1.29252
-1.36436
-1.36091
-1.23333
-0.927506
-0.376521
0.511568
1.8915
4.07035
7.73871
14.8709
27.87
)
;

boundaryField
{
    movingWall
    {
        type            zeroGradient;
    }
    fixedWalls
    {
        type            zeroGradient;
    }
    frontAndBack
    {
        type            empty;
    }
}


// ************************************************************************* //
