/*--------------------------------*- C++ -*----------------------------------*\
  =========                 |
  \\      /  F ield         | OpenFOAM: The Open Source CFD Toolbox
   \\    /   O peration     | Website:  https://openfoam.org
    \\  /    A nd           | Version:  8
     \\/     M anipulation  |
\*---------------------------------------------------------------------------*/
FoamFile
{
    version     2.0;
    format      ascii;
    class       volScalarField;
    location    "0.4";
    object      p;
}
// * * * * * * * * * * * * * * * * * * * * * * * * * * * * * * * * * * * * * //

dimensions      [0 2 -2 0 0 0 0];

internalField   nonuniform List<scalar> 
400
(
1.67269e-05
-0.0245532
-0.0536643
-0.075514
-0.0838466
-0.0760224
-0.0516993
-0.0120245
0.0407125
0.103112
0.170619
0.237618
0.297804
0.344912
0.373768
0.381527
0.368888
0.341025
0.307919
0.283777
0.0244516
-0.00100548
-0.0237394
-0.0385765
-0.0430038
-0.0352449
-0.0148869
0.0173636
0.0598878
0.110132
0.164561
0.21874
0.267663
0.30636
0.330761
0.338677
0.330718
0.310679
0.284496
0.259972
0.0552743
0.0201453
-0.00416542
-0.0174758
-0.0210456
-0.0141862
0.00326071
0.030747
0.0671163
0.110448
0.157903
0.205721
0.249469
0.284575
0.307118
0.314743
0.307563
0.288255
0.259496
0.225122
0.0809862
0.0329971
0.00324558
-0.0116741
-0.0162935
-0.0109111
0.00432023
0.028915
0.0620735
0.102369
0.147439
0.19385
0.237251
0.272846
0.29618
0.304123
0.295971
0.27348
0.236945
0.188213
0.0933313
0.032418
-0.00365604
-0.0212041
-0.0275862
-0.0238988
-0.0105041
0.0122317
0.0438886
0.0835217
0.129182
0.17763
0.22436
0.263996
0.291089
0.30125
0.292596
0.265912
0.21953
0.154338
0.0858365
0.0127332
-0.0296555
-0.050132
-0.0585211
-0.0565341
-0.0446052
-0.0228702
0.00871704
0.0497588
0.0987572
0.152648
0.206648
0.254534
0.289426
0.30511
0.297986
0.267566
0.210214
0.126469
0.0530031
-0.031346
-0.0796552
-0.102976
-0.113351
-0.112976
-0.102228
-0.0808763
-0.0482634
-0.00408501
0.0507695
0.113532
0.179163
0.240422
0.288558
0.314835
0.313127
0.280959
0.212163
0.107102
-0.0101694
-0.104772
-0.158363
-0.184146
-0.196283
-0.197402
-0.18773
-0.166522
-0.132314
-0.0838417
-0.0210826
0.0537997
0.13573
0.216447
0.284951
0.329149
0.339216
0.309413
0.22965
0.0997731
-0.108402
-0.212333
-0.270363
-0.297894
-0.311292
-0.313693
-0.305143
-0.284247
-0.248495
-0.195316
-0.123319
-0.0335346
0.069417
0.176527
0.274351
0.346556
0.378054
0.357795
0.269226
0.110571
-0.246231
-0.358771
-0.42005
-0.447974
-0.461532
-0.464619
-0.457159
-0.437008
-0.400354
-0.342899
-0.261288
-0.154679
-0.0264099
0.114451
0.252212
0.365592
0.432396
0.433288
0.341077
0.149916
-0.428239
-0.549031
-0.611584
-0.637192
-0.648494
-0.650667
-0.643686
-0.624592
-0.588007
-0.52745
-0.43693
-0.312802
-0.155977
0.0256323
0.214963
0.385656
0.506641
0.546432
0.460831
0.235069
-0.659832
-0.788936
-0.848989
-0.866871
-0.870978
-0.868647
-0.860149
-0.841629
-0.805853
-0.74369
-0.645828
-0.504838
-0.317829
-0.0898108
0.162572
0.408901
0.608253
0.712686
0.652116
0.394011
-0.949327
-1.08665
-1.13645
-1.13619
-1.12388
-1.11019
-1.0958
-1.07574
-1.0405
-0.977791
-0.874361
-0.718111
-0.500984
-0.223005
0.102368
0.443393
0.750212
0.954813
0.95033
0.671902
-1.313
-1.45548
-1.47871
-1.44125
-1.39681
-1.36034
-1.33254
-1.30653
-1.26981
-1.20632
-1.09831
-0.928381
-0.682222
-0.352862
0.0528788
0.506714
0.954037
1.30601
1.40828
1.14245
-1.78657
-1.91877
-1.88072
-1.773
-1.67216
-1.59643
-1.54454
-1.50604
-1.46405
-1.39784
-1.2847
-1.10153
-0.8272
-0.446233
0.0446851
0.627298
1.25101
1.81175
2.10271
1.92599
-2.44876
-2.51686
-2.34568
-2.11406
-1.92308
-1.78763
-1.69958
-1.64153
-1.59003
-1.51836
-1.39828
-1.20092
-0.89809
-0.464992
0.114807
0.840568
1.67913
2.52675
3.13567
3.20828
-3.46975
-3.31449
-2.87239
-2.4385
-2.11544
-1.89883
-1.76476
-1.68301
-1.6201
-1.54184
-1.41394
-1.20174
-0.869852
-0.383473
0.289927
1.17514
2.27272
3.5058
4.63354
5.26986
-5.27365
-4.39825
-3.42541
-2.6931
-2.19866
-1.88832
-1.70947
-1.61004
-1.54224
-1.46327
-1.33306
-1.11178
-0.757525
-0.224305
0.540523
1.59776
3.00291
4.75518
6.77129
8.68927
-9.06295
-5.79704
-3.72257
-2.6293
-1.99796
-1.64068
-1.46303
-1.38545
-1.34512
-1.29308
-1.18676
-0.984283
-0.641045
-0.102609
0.703153
1.88173
3.5811
6.00605
9.66369
14.784
-16.2609
-7.13957
-3.16589
-1.85171
-1.28953
-1.03552
-0.966363
-0.988905
-1.03556
-1.05961
-1.02272
-0.887546
-0.612349
-0.145838
0.586146
1.7126
3.49075
6.51053
12.5261
23.7046
)
;

boundaryField
{
    movingWall
    {
        type            zeroGradient;
    }
    fixedWalls
    {
        type            zeroGradient;
    }
    frontAndBack
    {
        type            empty;
    }
}


// ************************************************************************* //
