/*--------------------------------*- C++ -*----------------------------------*\
  =========                 |
  \\      /  F ield         | OpenFOAM: The Open Source CFD Toolbox
   \\    /   O peration     | Website:  https://openfoam.org
    \\  /    A nd           | Version:  8
     \\/     M anipulation  |
\*---------------------------------------------------------------------------*/
FoamFile
{
    version     2.0;
    format      ascii;
    class       volVectorField;
    location    "0.4";
    object      U;
}
// * * * * * * * * * * * * * * * * * * * * * * * * * * * * * * * * * * * * * //

dimensions      [0 1 -1 0 0 0 0];

internalField   nonuniform List<vector> 
400
(
(0.00100478 -0.00100513 0)
(0.000369912 0.000544888 0)
(-0.00527904 0.00237532 0)
(-0.014834 0.00361509 0)
(-0.026655 0.00422796 0)
(-0.0392373 0.00431471 0)
(-0.051291 0.00397429 0)
(-0.0617267 0.00328008 0)
(-0.069624 0.002285 0)
(-0.0742222 0.00104205 0)
(-0.0749602 -0.000372698 0)
(-0.0715589 -0.00184348 0)
(-0.0641248 -0.00320949 0)
(-0.0532429 -0.00427498 0)
(-0.0400216 -0.004835 0)
(-0.0260521 -0.00471554 0)
(-0.0132534 -0.00382365 0)
(-0.00358611 -0.00220205 0)
(0.00137382 -0.00015244 0)
(0.00125975 0.00122084 0)
(-0.000483482 -0.000466693 0)
(-0.00729979 0.00724604 0)
(-0.0246822 0.0152186 0)
(-0.0497909 0.0207465 0)
(-0.0793279 0.0234758 0)
(-0.110183 0.0236285 0)
(-0.139456 0.0215429 0)
(-0.164575 0.0175471 0)
(-0.183353 0.0119505 0)
(-0.194035 0.00510461 0)
(-0.195403 -0.00252251 0)
(-0.186946 -0.0102928 0)
(-0.169045 -0.0173926 0)
(-0.14312 -0.0228898 0)
(-0.111684 -0.0258587 0)
(-0.0782075 -0.0255665 0)
(-0.0467413 -0.0217001 0)
(-0.0212812 -0.0146012 0)
(-0.00511365 -0.00563335 0)
(0.00014859 0.00152703 0)
(-0.00248193 0.00523671 0)
(-0.0164194 0.0248999 0)
(-0.04564 0.0430254 0)
(-0.0848548 0.0554679 0)
(-0.129336 0.061415 0)
(-0.174945 0.0611591 0)
(-0.217758 0.055354 0)
(-0.254235 0.0447478 0)
(-0.281361 0.0301438 0)
(-0.296728 0.0124959 0)
(-0.298693 -0.00695905 0)
(-0.286587 -0.0266117 0)
(-0.260937 -0.0444878 0)
(-0.223654 -0.0583888 0)
(-0.178092 -0.0661805 0)
(-0.128889 -0.0662166 0)
(-0.0814869 -0.0578498 0)
(-0.0413324 -0.0419349 0)
(-0.013396 -0.0213891 0)
(-0.00153701 -0.00261915 0)
(-0.00426596 0.015874 0)
(-0.0249795 0.0527502 0)
(-0.065611 0.0837653 0)
(-0.11804 0.104356 0)
(-0.17602 0.113632 0)
(-0.234573 0.11212 0)
(-0.289054 0.100894 0)
(-0.335292 0.0812246 0)
(-0.369726 0.0545347 0)
(-0.389499 0.0225376 0)
(-0.392622 -0.0125725 0)
(-0.378202 -0.0479916 0)
(-0.346708 -0.0803233 0)
(-0.300208 -0.105804 0)
(-0.2425 -0.120766 0)
(-0.179025 -0.122334 0)
(-0.116392 -0.109263 0)
(-0.0615315 -0.0827539 0)
(-0.0214967 -0.0471541 0)
(-0.00304768 -0.0111888 0)
(-0.00581258 0.0308936 0)
(-0.0327504 0.0899915 0)
(-0.0841105 0.136321 0)
(-0.148928 0.165865 0)
(-0.21941 0.178236 0)
(-0.289819 0.17452 0)
(-0.354975 0.15638 0)
(-0.410288 0.125705 0)
(-0.45184 0.0845954 0)
(-0.476434 0.0355693 0)
(-0.481732 -0.0181747 0)
(-0.466493 -0.0725658 0)
(-0.430874 -0.122659 0)
(-0.376767 -0.16291 0)
(-0.308078 -0.187792 0)
(-0.230807 -0.192763 0)
(-0.152695 -0.175496 0)
(-0.0824085 -0.13708 0)
(-0.0295917 -0.0829401 0)
(-0.00442843 -0.0238931 0)
(-0.0071831 0.0498419 0)
(-0.0398164 0.135965 0)
(-0.101138 0.200016 0)
(-0.177485 0.239293 0)
(-0.259574 0.254518 0)
(-0.340993 0.247734 0)
(-0.416173 0.221419 0)
(-0.480273 0.178179 0)
(-0.529166 0.120804 0)
(-0.559393 0.0525746 0)
(-0.568241 -0.0223703 0)
(-0.553964 -0.0987363 0)
(-0.516138 -0.169994 0)
(-0.456117 -0.228632 0)
(-0.377534 -0.26687 0)
(-0.286677 -0.277893 0)
(-0.192378 -0.257535 0)
(-0.105332 -0.206049 0)
(-0.0383945 -0.129477 0)
(-0.00587626 -0.0407994 0)
(-0.00842588 0.0723562 0)
(-0.0462757 0.189987 0)
(-0.116747 0.274041 0)
(-0.203651 0.323788 0)
(-0.296321 0.341662 0)
(-0.387785 0.331101 0)
(-0.472248 0.295655 0)
(-0.544801 0.238742 0)
(-0.601267 0.163812 0)
(-0.638023 0.0747831 0)
(-0.651984 -0.02344 0)
(-0.640775 -0.124509 0)
(-0.603117 -0.220388 0)
(-0.539418 -0.301483 0)
(-0.452556 -0.35734 0)
(-0.34867 -0.378087 0)
(-0.237476 -0.356657 0)
(-0.1319 -0.291375 0)
(-0.0487659 -0.1882 0)
(-0.00761705 -0.0624477 0)
(-0.00957265 0.0981328 0)
(-0.052197 0.251363 0)
(-0.130945 0.357446 0)
(-0.227222 0.418241 0)
(-0.329093 0.438524 0)
(-0.429187 0.423604 0)
(-0.521692 0.378388 0)
(-0.601867 0.307202 0)
(-0.665703 0.214089 0)
(-0.709587 0.103407 0)
(-0.730147 -0.019463 0)
(-0.724337 -0.147434 0)
(-0.689796 -0.271209 0)
(-0.625556 -0.379139 0)
(-0.533121 -0.457736 0)
(-0.417777 -0.493188 0)
(-0.289582 -0.474111 0)
(-0.163651 -0.395264 0)
(-0.0616125 -0.261306 0)
(-0.0098946 -0.0898832 0)
(-0.0106549 0.126906 0)
(-0.0576579 0.319391 0)
(-0.143734 0.449114 0)
(-0.247884 0.521185 0)
(-0.357002 0.543426 0)
(-0.463528 0.52357 0)
(-0.561917 0.468206 0)
(-0.647907 0.382672 0)
(-0.717976 0.271516 0)
(-0.76881 0.139276 0)
(-0.79697 -0.00858154 0)
(-0.798836 -0.16471 0)
(-0.770871 -0.319016 0)
(-0.710341 -0.458081 0)
(-0.616642 -0.565242 0)
(-0.493189 -0.621884 0)
(-0.349332 -0.61057 0)
(-0.201829 -0.520109 0)
(-0.0778584 -0.351693 0)
(-0.0129875 -0.124671 0)
(-0.011741 0.158475 0)
(-0.0628561 0.39339 0)
(-0.155279 0.547717 0)
(-0.265392 0.630623 0)
(-0.37899 0.653872 0)
(-0.48861 0.628287 0)
(-0.58936 0.562523 0)
(-0.67788 0.463059 0)
(-0.751563 0.334851 0)
(-0.807817 0.182332 0)
(-0.843531 0.0105742 0)
(-0.854823 -0.173448 0)
(-0.837095 -0.359577 0)
(-0.785623 -0.53329 0)
(-0.696966 -0.675027 0)
(-0.571361 -0.760804 0)
(-0.415745 -0.76523 0)
(-0.247111 -0.66787 0)
(-0.0984479 -0.462741 0)
(-0.0172477 -0.168928 0)
(-0.0130024 0.192817 0)
(-0.0682986 0.472831 0)
(-0.166167 0.651708 0)
(-0.279824 0.743859 0)
(-0.394038 0.766228 0)
(-0.501876 0.733582 0)
(-0.599642 0.657091 0)
(-0.685424 0.544523 0)
(-0.758073 0.401154 0)
(-0.816265 0.231018 0)
(-0.857791 0.0382906 0)
(-0.879054 -0.171178 0)
(-0.874831 -0.388157 0)
(-0.838515 -0.598155 0)
(-0.763313 -0.779668 0)
(-0.64486 -0.903455 0)
(-0.485293 -0.934521 0)
(-0.29917 -0.839048 0)
(-0.124341 -0.597932 0)
(-0.023164 -0.225392 0)
(-0.0148259 0.230358 0)
(-0.0750875 0.557595 0)
(-0.177738 0.759337 0)
(-0.291827 0.85727 0)
(-0.401288 0.875355 0)
(-0.500458 0.833384 0)
(-0.587613 0.745534 0)
(-0.662978 0.620983 0)
(-0.727482 0.465236 0)
(-0.781691 0.281662 0)
(-0.824973 0.0730733 0)
(-0.854792 -0.156571 0)
(-0.866092 -0.400139 0)
(-0.850995 -0.644773 0)
(-0.799366 -0.868848 0)
(-0.701076 -1.03917 0)
(-0.550632 -1.11047 0)
(-0.355922 -1.03112 0)
(-0.156443 -0.76014 0)
(-0.0314577 -0.297557 0)
(-0.0180146 0.272493 0)
(-0.0853313 0.648378 0)
(-0.192386 0.868577 0)
(-0.3026 0.9659 0)
(-0.399731 0.974087 0)
(-0.480712 0.919239 0)
(-0.546916 0.818939 0)
(-0.601531 0.683771 0)
(-0.648183 0.51931 0)
(-0.689891 0.328026 0)
(-0.72825 0.111014 0)
(-0.762635 -0.130287 0)
(-0.789259 -0.391991 0)
(-0.800184 -0.664783 0)
(-0.782822 -0.929631 0)
(-0.720989 -1.15235 0)
(-0.598941 -1.27883 0)
(-0.412263 -1.23623 0)
(-0.195352 -0.950349 0)
(-0.0432107 -0.389887 0)
(-0.0241324 0.322507 0)
(-0.102667 0.747099 0)
(-0.213516 0.976657 0)
(-0.313024 1.06259 0)
(-0.386714 1.05239 0)
(-0.436469 0.97973 0)
(-0.468333 0.86559 0)
(-0.489331 0.721604 0)
(-0.506254 0.553061 0)
(-0.524863 0.361301 0)
(-0.54935 0.145522 0)
(-0.581672 -0.0956724 0)
(-0.620476 -0.362446 0)
(-0.659497 -0.650822 0)
(-0.685715 -0.947664 0)
(-0.678235 -1.22259 0)
(-0.609876 -1.41738 0)
(-0.457939 -1.4381 0)
(-0.240536 -1.16524 0)
(-0.059938 -0.507945 0)
(-0.035998 0.387072 0)
(-0.132591 0.856849 0)
(-0.244147 1.07852 0)
(-0.320424 1.13615 0)
(-0.353641 1.09606 0)
(-0.354518 0.999878 0)
(-0.335646 0.871047 0)
(-0.308519 0.721173 0)
(-0.283066 0.554522 0)
(-0.267512 0.370981 0)
(-0.268411 0.167876 0)
(-0.290413 -0.0588586 0)
(-0.335396 -0.313522 0)
(-0.400626 -0.598514 0)
(-0.475729 -0.909651 0)
(-0.538748 -1.22648 0)
(-0.553067 -1.49546 0)
(-0.473856 -1.6084 0)
(-0.287926 -1.39297 0)
(-0.0831583 -0.65798 0)
(-0.0578786 0.478672 0)
(-0.181001 0.980039 0)
(-0.281046 1.16272 0)
(-0.309356 1.16791 0)
(-0.275733 1.08481 0)
(-0.204966 0.960895 0)
(-0.117421 0.819149 0)
(-0.0286086 0.668952 0)
(0.0495043 0.512277 0)
(0.107486 0.347125 0)
(0.137571 0.169174 0)
(0.133211 -0.0275919 0)
(0.0893913 -0.250675 0)
(0.00406815 -0.508362 0)
(-0.118462 -0.806876 0)
(-0.261162 -1.14149 0)
(-0.385034 -1.47564 0)
(-0.42571 -1.7038 0)
(-0.323651 -1.60717 0)
(-0.111933 -0.846394 0)
(-0.0931138 0.62055 0)
(-0.245236 1.11059 0)
(-0.295588 1.1999 0)
(-0.228551 1.12375 0)
(-0.0907943 0.989207 0)
(0.0759699 0.84057 0)
(0.245939 0.694458 0)
(0.402758 0.554652 0)
(0.535421 0.419297 0)
(0.635855 0.284183 0)
(0.697216 0.143849 0)
(0.712826 -0.00843452 0)
(0.675818 -0.181353 0)
(0.57955 -0.386571 0)
(0.419923 -0.638883 0)
(0.20215 -0.951639 0)
(-0.0453859 -1.31799 0)
(-0.253959 -1.66365 0)
(-0.311102 -1.75756 0)
(-0.134701 -1.0792 0)
(-0.128336 0.845882 0)
(-0.278508 1.20712 0)
(-0.179988 1.11867 0)
(0.0588672 0.944243 0)
(0.337037 0.77134 0)
(0.609084 0.619149 0)
(0.855427 0.489652 0)
(1.06644 0.378381 0)
(1.23715 0.279219 0)
(1.36431 0.186275 0)
(1.44457 0.0940102 0)
(1.47333 -0.00340047 0)
(1.44401 -0.113211 0)
(1.34733 -0.246213 0)
(1.1714 -0.419603 0)
(0.905143 -0.659287 0)
(0.549561 -0.993133 0)
(0.143173 -1.41186 0)
(-0.165583 -1.74487 0)
(-0.104662 -1.33081 0)
(-0.025183 1.0763 0)
(-0.0336568 1.12038 0)
(0.385636 0.821686 0)
(0.854206 0.594393 0)
(1.25291 0.436006 0)
(1.58063 0.321905 0)
(1.84699 0.238093 0)
(2.05852 0.174292 0)
(2.2204 0.122732 0)
(2.33622 0.0778965 0)
(2.40728 0.0357329 0)
(2.43239 -0.00724886 0)
(2.40725 -0.0550375 0)
(2.32334 -0.113707 0)
(2.16578 -0.194614 0)
(1.91072 -0.320831 0)
(1.522 -0.536691 0)
(0.95765 -0.902543 0)
(0.331537 -1.38648 0)
(0.156642 -1.37974 0)
(1.20387 0.591005 0)
(1.54733 0.52294 0)
(2.16557 0.329063 0)
(2.64666 0.204609 0)
(2.95522 0.130929 0)
(3.1634 0.0853588 0)
(3.31214 0.0563786 0)
(3.41928 0.0372304 0)
(3.49459 0.0236458 0)
(3.54392 0.0130276 0)
(3.5702 0.00378429 0)
(3.57413 -0.00517546 0)
(3.55437 -0.0149409 0)
(3.50696 -0.0270251 0)
(3.42315 -0.0445053 0)
(3.28435 -0.0748034 0)
(3.04703 -0.13663 0)
(2.59845 -0.271312 0)
(1.87323 -0.522685 0)
(1.36298 -0.643609 0)
)
;

boundaryField
{
    movingWall
    {
        type            fixedValue;
        value           uniform (4.2 0 0);
    }
    fixedWalls
    {
        type            noSlip;
    }
    frontAndBack
    {
        type            empty;
    }
}


// ************************************************************************* //
