/*--------------------------------*- C++ -*----------------------------------*\
  =========                 |
  \\      /  F ield         | OpenFOAM: The Open Source CFD Toolbox
   \\    /   O peration     | Website:  https://openfoam.org
    \\  /    A nd           | Version:  8
     \\/     M anipulation  |
\*---------------------------------------------------------------------------*/
FoamFile
{
    version     2.0;
    format      ascii;
    class       surfaceScalarField;
    location    "0.3";
    object      phi;
}
// * * * * * * * * * * * * * * * * * * * * * * * * * * * * * * * * * * * * * //

dimensions      [0 3 -1 0 0 0 0];

internalField   nonuniform List<scalar> 
760
(
2.22656e-08
-2.22258e-08
-3.69003e-08
5.9165e-08
-1.84307e-07
1.47407e-07
-3.93311e-07
2.09004e-07
-6.32633e-07
2.39322e-07
-8.73062e-07
2.40429e-07
-1.08954e-06
2.16478e-07
-1.26181e-06
1.72267e-07
-1.37448e-06
1.12674e-07
-1.41719e-06
4.27038e-08
-1.38496e-06
-3.22258e-08
-1.27893e-06
-1.06029e-07
-1.10706e-06
-1.71869e-07
-8.84712e-07
-2.22351e-07
-6.34658e-07
-2.50054e-07
-3.86172e-07
-2.48486e-07
-1.72628e-07
-2.13545e-07
-2.71796e-08
-1.45448e-07
2.59379e-08
-5.31186e-08
2.5937e-08
-5.60338e-08
3.38087e-08
-2.91432e-07
2.94562e-07
-6.97286e-07
5.53259e-07
-1.22417e-06
7.3589e-07
-1.80963e-06
8.24776e-07
-2.39085e-06
8.21651e-07
-2.91119e-06
7.36825e-07
-3.32342e-06
5.84491e-07
-3.59128e-06
3.80529e-07
-3.69064e-06
1.42065e-07
-3.61069e-06
-1.12178e-07
-3.35525e-06
-3.61469e-07
-2.94401e-06
-5.83112e-07
-2.41306e-06
-7.53294e-07
-1.81412e-06
-8.49004e-07
-1.21135e-06
-8.51254e-07
-6.75134e-07
-7.4976e-07
-2.71695e-07
-5.48886e-07
-4.72993e-08
-2.77514e-07
-2.13633e-08
-1.49524e-07
1.83333e-07
-5.75113e-07
7.2015e-07
-1.22698e-06
1.20512e-06
-2.03054e-06
1.53946e-06
-2.90043e-06
1.69466e-06
-3.7518e-06
1.67301e-06
-4.50769e-06
1.49272e-06
-5.10344e-06
1.18025e-06
-5.48927e-06
7.66352e-07
-5.63207e-06
2.84871e-07
-5.51719e-06
-2.27062e-07
-5.15006e-06
-7.28597e-07
-4.5577e-06
-1.17548e-06
-3.78918e-06
-1.52181e-06
-2.91442e-06
-1.72376e-06
-2.01997e-06
-1.74571e-06
-1.20104e-06
-1.56869e-06
-5.49319e-07
-1.20061e-06
-1.36967e-07
-6.89866e-07
-1.5833e-07
-2.34817e-07
4.18149e-07
-8.45035e-07
1.33037e-06
-1.73351e-06
2.09359e-06
-2.79445e-06
2.60039e-06
-3.91968e-06
2.8199e-06
-5.00649e-06
2.75982e-06
-5.96349e-06
2.44972e-06
-6.71449e-06
1.93125e-06
-7.20095e-06
1.25281e-06
-7.38378e-06
4.67698e-07
-7.24518e-06
-3.65663e-07
-6.79056e-06
-1.18322e-06
-6.05034e-06
-1.9157e-06
-5.08097e-06
-2.49118e-06
-3.96418e-06
-2.84056e-06
-2.80318e-06
-2.9067e-06
-1.71499e-06
-2.65688e-06
-8.18439e-07
-2.09716e-06
-2.1967e-07
-1.28863e-06
-3.78001e-07
-3.12338e-07
7.30487e-07
-1.09899e-06
2.11702e-06
-2.21576e-06
3.21036e-06
-3.52255e-06
3.90718e-06
-4.88732e-06
4.18467e-06
-6.19099e-06
4.06349e-06
-7.33098e-06
3.5897e-06
-8.22329e-06
2.82356e-06
-8.80378e-06
1.8333e-06
-9.02919e-06
6.93111e-07
-8.87862e-06
-5.16229e-07
-8.35555e-06
-1.70629e-06
-7.49025e-06
-2.781e-06
-6.34204e-06
-3.63938e-06
-5.00013e-06
-4.18248e-06
-3.58168e-06
-4.32515e-06
-2.22571e-06
-4.01286e-06
-1.08214e-06
-3.24073e-06
-2.97308e-07
-2.07346e-06
-6.75309e-07
-3.85665e-07
1.11615e-06
-1.34326e-06
3.07461e-06
-2.68235e-06
4.54945e-06
-4.22696e-06
5.4518e-06
-5.82048e-06
5.77819e-06
-7.32851e-06
5.57152e-06
-8.63972e-06
4.90091e-06
-9.66531e-06
3.84916e-06
-1.03381e-05
2.50613e-06
-1.06122e-05
9.67179e-07
-1.04633e-05
-6.65176e-07
-9.89079e-06
-2.27877e-06
-8.92132e-06
-3.75046e-06
-7.61258e-06
-4.94812e-06
-6.05714e-06
-5.73792e-06
-4.38377e-06
-5.99851e-06
-2.7543e-06
-5.64233e-06
-1.35404e-06
-4.64099e-06
-3.75936e-07
-3.05156e-06
-1.05125e-06
-4.58329e-07
1.57448e-06
-1.58527e-06
4.20154e-06
-3.14281e-06
6.10699e-06
-4.91751e-06
7.22651e-06
-6.72803e-06
7.58871e-06
-8.42638e-06
7.26986e-06
-9.8955e-06
6.37002e-06
-1.10453e-05
4.99893e-06
-1.18085e-05
3.2694e-06
-1.21383e-05
1.29697e-06
-1.2007e-05
-7.9649e-07
-1.1408e-05
-2.87778e-06
-1.03601e-05
-4.79838e-06
-8.91405e-06
-6.39416e-06
-7.16035e-06
-7.49162e-06
-5.23553e-06
-7.92334e-06
-3.32379e-06
-7.55407e-06
-1.65009e-06
-6.31469e-06
-4.62123e-07
-4.23953e-06
-1.51337e-06
-5.33438e-07
2.10792e-06
-1.83174e-06
5.49985e-06
-3.60447e-06
7.87972e-06
-5.59811e-06
9.22015e-06
-7.60712e-06
9.59772e-06
-9.47301e-06
9.13575e-06
-1.10776e-05
7.97462e-06
-1.23345e-05
6.25577e-06
-1.31807e-05
4.11565e-06
-1.35712e-05
1.68747e-06
-1.34756e-05
-8.92049e-07
-1.28795e-05
-3.4739e-06
-1.17893e-05
-5.88858e-06
-1.0242e-05
-7.94147e-06
-8.31791e-06
-9.41571e-06
-6.15422e-06
-1.0087e-05
-3.95425e-06
-9.75405e-06
-1.98586e-06
-8.28308e-06
-5.62363e-07
-5.66303e-06
-2.07573e-06
-6.14013e-07
2.72193e-06
-2.08879e-06
6.97463e-06
-4.07177e-06
9.8627e-06
-6.26517e-06
1.14135e-05
-8.44072e-06
1.17733e-05
-1.04348e-05
1.11298e-05
-1.21353e-05
9.67511e-06
-1.34667e-05
7.58718e-06
-1.43768e-05
5.02577e-06
-1.48268e-05
2.13748e-06
-1.47857e-05
-9.33152e-07
-1.42299e-05
-4.02972e-06
-1.31487e-05
-6.96977e-06
-1.15567e-05
-9.53344e-06
-9.51261e-06
-1.14598e-05
-7.14209e-06
-1.24575e-05
-4.6592e-06
-1.22369e-05
-2.37541e-06
-1.05669e-05
-6.8321e-07
-7.35523e-06
-2.75894e-06
-7.04044e-07
3.42597e-06
-2.36356e-06
8.63414e-06
-4.54724e-06
1.20464e-05
-6.90698e-06
1.37733e-05
-9.19526e-06
1.40615e-05
-1.12522e-05
1.31868e-05
-1.29826e-05
1.14055e-05
-1.43323e-05
8.93688e-06
-1.52686e-05
5.96204e-06
-1.57655e-05
2.63439e-06
-1.57951e-05
-9.03535e-07
-1.53249e-05
-4.49991e-06
-1.43228e-05
-7.97192e-06
-1.2771e-05
-1.10852e-05
-1.06911e-05
-1.35397e-05
-8.17874e-06
-1.49699e-05
-5.44219e-06
-1.49735e-05
-2.8311e-06
-1.3178e-05
-8.31988e-07
-9.35434e-06
-3.59093e-06
-8.10369e-07
4.23634e-06
-2.66707e-06
1.04908e-05
-5.03295e-06
1.44123e-05
-7.50244e-06
1.62428e-05
-9.81656e-06
1.63757e-05
-1.18338e-05
1.5204e-05
-1.34914e-05
1.30631e-05
-1.47705e-05
1.0216e-05
-1.56691e-05
6.86066e-06
-1.61828e-05
3.14805e-06
-1.62923e-05
-7.93957e-07
-1.59588e-05
-4.83348e-06
-1.51258e-05
-8.80491e-06
-1.37338e-05
-1.24772e-05
-1.17489e-05
-1.55246e-05
-9.21015e-06
-1.75087e-05
-6.29145e-06
-1.78922e-05
-3.36329e-06
-1.61061e-05
-1.0181e-06
-1.16995e-05
-4.60903e-06
-9.45808e-07
5.18215e-06
-3.01791e-06
1.25629e-05
-5.53074e-06
1.69251e-05
-8.01621e-06
1.87282e-05
-1.02209e-05
1.85804e-05
-1.20451e-05
1.70282e-05
-1.34801e-05
1.4498e-05
-1.45592e-05
1.12952e-05
-1.5324e-05
7.62541e-06
-1.58008e-05
3.62488e-06
-1.59869e-05
-6.07918e-07
-1.58416e-05
-4.97875e-06
-1.52857e-05
-9.36082e-06
-1.42111e-05
-1.35518e-05
-1.25101e-05
-1.72256e-05
-1.01314e-05
-1.98873e-05
-7.17021e-06
-2.08534e-05
-3.97903e-06
-1.92973e-05
-1.25519e-06
-1.44234e-05
-5.86423e-06
-1.13425e-06
6.3164e-06
-3.44548e-06
1.48742e-05
-6.03686e-06
1.95165e-05
-8.38434e-06
2.10757e-05
-1.02752e-05
2.04713e-05
-1.1688e-05
1.84409e-05
-1.26956e-05
1.55057e-05
-1.34017e-05
1.20013e-05
-1.39022e-05
8.1259e-06
-1.42625e-05
3.98513e-06
-1.45033e-05
-3.67108e-07
-1.45907e-05
-4.89139e-06
-1.44291e-05
-9.52237e-06
-1.38634e-05
-1.41175e-05
-1.26991e-05
-1.839e-05
-1.07592e-05
-2.18271e-05
-7.9981e-06
-2.36145e-05
-4.6772e-06
-2.26182e-05
-1.56449e-06
-1.75361e-05
-7.42872e-06
-1.41828e-06
7.73468e-06
-3.98812e-06
1.7444e-05
-6.52064e-06
2.2049e-05
-8.47767e-06
2.30328e-05
-9.75505e-06
2.17486e-05
-1.04622e-05
1.91481e-05
-1.07841e-05
1.58276e-05
-1.09081e-05
1.21253e-05
-1.09883e-05
8.20607e-06
-1.11307e-05
4.12754e-06
-1.1384e-05
-1.13751e-07
-1.17304e-05
-4.54501e-06
-1.20728e-05
-9.18002e-06
-1.22233e-05
-1.39669e-05
-1.19045e-05
-1.87088e-05
-1.07882e-05
-2.29435e-05
-8.61426e-06
-2.57884e-05
-5.4334e-06
-2.57991e-05
-1.97852e-06
-2.09909e-05
-9.40724e-06
-1.86641e-06
9.60109e-06
-4.66986e-06
2.02475e-05
-6.86202e-06
2.42412e-05
-8.01847e-06
2.41892e-05
-8.26227e-06
2.19924e-05
-7.89839e-06
1.87842e-05
-7.24564e-06
1.51749e-05
-6.57165e-06
1.14513e-05
-6.077e-06
7.71142e-06
-5.89719e-06
3.94772e-06
-6.10546e-06
9.45259e-08
-6.70806e-06
-3.94241e-06
-7.62828e-06
-8.2598e-06
-8.67921e-06
-1.2916e-05
-9.53381e-06
-1.78542e-05
-9.7201e-06
-2.27572e-05
-8.70327e-06
-2.68052e-05
-6.15503e-06
-2.83473e-05
-2.53792e-06
-2.46081e-05
-1.19452e-05
-2.5589e-06
1.216e-05
-5.40357e-06
2.30921e-05
-6.68924e-06
2.55268e-05
-6.40684e-06
2.39068e-05
-5.07935e-06
2.06649e-05
-3.25624e-06
1.69611e-05
-1.3753e-06
1.32939e-05
2.52971e-07
9.82301e-06
1.42042e-06
6.54398e-06
1.99163e-06
3.37652e-06
1.8845e-06
2.01654e-07
1.06628e-06
-3.12419e-06
-4.31847e-07
-6.76167e-06
-2.47594e-06
-1.08719e-05
-4.76508e-06
-1.5565e-05
-6.7572e-06
-2.07651e-05
-7.64826e-06
-2.59142e-05
-6.55606e-06
-2.94395e-05
-3.25096e-06
-2.79132e-05
-1.51961e-05
-3.48359e-06
1.56436e-05
-5.68337e-06
2.52919e-05
-4.99908e-06
2.48425e-05
-2.395e-06
2.13027e-05
1.05386e-06
1.72161e-05
4.60018e-06
1.34147e-05
7.78541e-06
1.01087e-05
1.03483e-05
7.26016e-06
1.21428e-05
4.74942e-06
1.30812e-05
2.43817e-06
1.30999e-05
1.82871e-07
1.21475e-05
-2.17172e-06
1.01906e-05
-4.80479e-06
7.25148e-06
-7.93281e-06
3.49013e-06
-1.18037e-05
-6.51281e-07
-1.66237e-05
-4.26159e-06
-2.23039e-05
-5.85922e-06
-2.78419e-05
-3.94351e-06
-2.98289e-05
-1.91396e-05
-4.15633e-06
1.97999e-05
-3.7432e-06
2.48788e-05
6.41911e-07
2.04574e-05
6.44145e-06
1.55032e-05
1.22037e-05
1.14538e-05
1.72812e-05
8.33722e-06
2.14223e-05
5.96758e-06
2.45572e-05
4.12527e-06
2.6684e-05
2.62263e-06
2.7809e-05
1.31324e-06
2.79158e-05
7.60217e-08
2.69516e-05
-1.20749e-06
2.48209e-05
-2.67413e-06
2.14007e-05
-4.51256e-06
1.65962e-05
-6.99926e-06
1.04937e-05
-1.05211e-05
3.68759e-06
-1.54978e-05
-2.14732e-06
-2.2007e-05
-3.85875e-06
-2.81174e-05
-2.29984e-05
-1.5436e-06
2.13435e-05
5.8997e-06
1.74355e-05
1.55981e-05
1.0759e-05
2.4279e-05
6.82232e-06
3.12784e-05
4.4544e-06
3.66677e-05
2.94799e-06
4.06749e-05
1.96034e-06
4.35204e-05
1.27978e-06
4.53693e-05
7.73714e-07
4.63223e-05
3.60274e-07
4.64138e-05
-1.55159e-08
4.56091e-05
-4.02732e-07
4.37896e-05
-8.54686e-07
4.07335e-05
-1.45649e-06
3.60931e-05
-2.35881e-06
2.94177e-05
-3.84574e-06
2.03667e-05
-6.44681e-06
9.45865e-06
-1.10989e-05
1.31042e-07
-1.87898e-05
-2.28673e-05
2.13435e-05
3.8779e-05
4.9538e-05
5.63603e-05
6.08147e-05
6.37627e-05
6.57231e-05
6.70028e-05
6.77766e-05
6.81368e-05
6.81213e-05
6.77186e-05
6.68639e-05
6.54074e-05
6.30486e-05
5.92028e-05
5.2756e-05
4.16572e-05
2.28673e-05
)
;

boundaryField
{
    movingWall
    {
        type            calculated;
        value           uniform 0;
    }
    fixedWalls
    {
        type            calculated;
        value           uniform 0;
    }
    frontAndBack
    {
        type            empty;
        value           nonuniform List<scalar> 0();
    }
}


// ************************************************************************* //
