/*--------------------------------*- C++ -*----------------------------------*\
  =========                 |
  \\      /  F ield         | OpenFOAM: The Open Source CFD Toolbox
   \\    /   O peration     | Website:  https://openfoam.org
    \\  /    A nd           | Version:  8
     \\/     M anipulation  |
\*---------------------------------------------------------------------------*/
FoamFile
{
    version     2.0;
    format      ascii;
    class       volVectorField;
    location    "0.3";
    object      U;
}
// * * * * * * * * * * * * * * * * * * * * * * * * * * * * * * * * * * * * * //

dimensions      [0 1 -1 0 0 0 0];

internalField   nonuniform List<vector> 
400
(
(0.000400337 -0.00039554 0)
(0.000205965 0.000186094 0)
(-0.00191464 0.000905009 0)
(-0.0055928 0.00140855 0)
(-0.010199 0.00165986 0)
(-0.0151111 0.00168605 0)
(-0.0197783 0.00152651 0)
(-0.0237437 0.00122078 0)
(-0.0266492 0.000805126 0)
(-0.0282357 0.000314426 0)
(-0.0283476 -0.000214174 0)
(-0.0269438 -0.000738168 0)
(-0.0241132 -0.00120818 0)
(-0.0200886 -0.00156869 0)
(-0.0152542 -0.00176143 0)
(-0.010139 -0.00173214 0)
(-0.005385 -0.00144182 0)
(-0.00168211 -0.000883469 0)
(0.000346712 -0.000131531 0)
(0.000436705 0.000426853 0)
(-0.000137301 -0.000247867 0)
(-0.00262313 0.00266288 0)
(-0.00917312 0.00579241 0)
(-0.0187967 0.00802369 0)
(-0.0302215 0.00913373 0)
(-0.0421711 0.00916323 0)
(-0.053434 0.00824885 0)
(-0.0629582 0.00656321 0)
(-0.069902 0.00429004 0)
(-0.0736563 0.00162224 0)
(-0.073866 -0.0012305 0)
(-0.0704555 -0.00403415 0)
(-0.0636561 -0.00652889 0)
(-0.0540263 -0.00843749 0)
(-0.0424536 -0.00948668 0)
(-0.0301197 -0.00944431 0)
(-0.0184032 -0.00817565 0)
(-0.00871112 -0.00571914 0)
(-0.00231943 -0.00244158 0)
(-4.81799e-05 0.000397988 0)
(-0.000866681 0.00180266 0)
(-0.00600296 0.00924604 0)
(-0.0170287 0.0163653 0)
(-0.0320423 0.021378 0)
(-0.0492049 0.0237905 0)
(-0.0668127 0.0236257 0)
(-0.0832325 0.0211534 0)
(-0.0970287 0.0167638 0)
(-0.107046 0.0109045 0)
(-0.112447 0.00406498 0)
(-0.112748 -0.00321852 0)
(-0.107848 -0.010354 0)
(-0.0980675 -0.0166974 0)
(-0.0841689 -0.0215781 0)
(-0.067355 -0.0243543 0)
(-0.0492212 -0.0245038 0)
(-0.0316203 -0.0217545 0)
(-0.0164483 -0.0162447 0)
(-0.00558465 -0.0087684 0)
(-0.000733979 -0.00143546 0)
(-0.00151317 0.00566985 0)
(-0.00918437 0.0196636 0)
(-0.0245691 0.031871 0)
(-0.0446907 0.0401767 0)
(-0.0670894 0.0439386 0)
(-0.089688 0.0432243 0)
(-0.110542 0.0384888 0)
(-0.127954 0.0303969 0)
(-0.140568 0.0197271 0)
(-0.147399 0.0073401 0)
(-0.14787 -0.00581893 0)
(-0.141849 -0.0187121 0)
(-0.129686 -0.0302178 0)
(-0.112251 -0.0391754 0)
(-0.0909343 -0.0444787 0)
(-0.0676175 -0.0452279 0)
(-0.0445298 -0.0409392 0)
(-0.0240317 -0.0317878 0)
(-0.00870499 -0.018908 0)
(-0.0013422 -0.00501466 0)
(-0.00207876 0.0111601 0)
(-0.0121305 0.0336669 0)
(-0.0317242 0.0519671 0)
(-0.0567634 0.0639125 0)
(-0.084121 0.068914 0)
(-0.111352 0.067214 0)
(-0.136253 0.0595391 0)
(-0.156943 0.0468897 0)
(-0.171935 0.0304214 0)
(-0.18015 0.0114048 0)
(-0.180938 -0.00877025 0)
(-0.174117 -0.0285809 0)
(-0.160012 -0.0463798 0)
(-0.13951 -0.0604513 0)
(-0.114101 -0.0691392 0)
(-0.0858707 -0.0710569 0)
(-0.0573952 -0.0653788 0)
(-0.0315403 -0.0521684 0)
(-0.0117042 -0.0327293 0)
(-0.00188548 -0.0101845 0)
(-0.00260261 0.0181488 0)
(-0.0149416 0.0511259 0)
(-0.0386367 0.0765493 0)
(-0.0684587 0.0924628 0)
(-0.100585 0.0985474 0)
(-0.132205 0.0953897 0)
(-0.160895 0.0841059 0)
(-0.18465 0.0661054 0)
(-0.201911 0.0429603 0)
(-0.21155 0.0163675 0)
(-0.212858 -0.0118342 0)
(-0.205577 -0.0396317 0)
(-0.18995 -0.0648311 0)
(-0.166798 -0.0851102 0)
(-0.137612 -0.0981666 0)
(-0.104616 -0.101981 0)
(-0.0707101 -0.0951935 0)
(-0.039317 -0.0775427 0)
(-0.0147748 -0.0503031 0)
(-0.00242305 -0.0168964 0)
(-0.00312175 0.0265871 0)
(-0.0177321 0.0719744 0)
(-0.0454832 0.105537 0)
(-0.0799765 0.125704 0)
(-0.116672 0.132661 0)
(-0.152411 0.127541 0)
(-0.184599 0.111993 0)
(-0.211176 0.0879193 0)
(-0.230584 0.0573412 0)
(-0.241693 0.022375 0)
(-0.243757 -0.0147198 0)
(-0.236421 -0.0514716 0)
(-0.21978 -0.0851509 0)
(-0.194495 -0.112796 0)
(-0.161944 -0.131356 0)
(-0.124383 -0.137997 0)
(-0.0849849 -0.130569 0)
(-0.0477647 -0.108195 0)
(-0.0181428 -0.0718709 0)
(-0.00301806 -0.025234 0)
(-0.00366852 0.036493 0)
(-0.0206082 0.0962184 0)
(-0.0524205 0.138865 0)
(-0.0914474 0.163463 0)
(-0.132407 0.170977 0)
(-0.171831 0.16333 0)
(-0.20704 0.142875 0)
(-0.23602 0.112099 0)
(-0.25731 0.073494 0)
(-0.269856 0.0295622 0)
(-0.272908 -0.0170832 0)
(-0.266007 -0.0635883 0)
(-0.249037 -0.106745 0)
(-0.222378 -0.142951 0)
(-0.187139 -0.168319 0)
(-0.145448 -0.178985 0)
(-0.100626 -0.171684 0)
(-0.0572675 -0.144522 0)
(-0.0220372 -0.0978601 0)
(-0.0037339 -0.0354135 0)
(-0.00427578 0.0479448 0)
(-0.023675 0.123932 0)
(-0.0595817 0.176465 0)
(-0.10291 0.205461 0)
(-0.147603 0.213025 0)
(-0.189967 0.202174 0)
(-0.227371 0.17617 0)
(-0.257998 0.138184 0)
(-0.280627 0.0911819 0)
(-0.294388 0.0379868 0)
(-0.298602 -0.018548 0)
(-0.29271 -0.0753198 0)
(-0.276331 -0.12876 0)
(-0.249426 -0.174689 0)
(-0.212631 -0.208325 0)
(-0.167687 -0.224558 0)
(-0.11784 -0.218596 0)
(-0.068148 -0.186976 0)
(-0.0266869 -0.128871 0)
(-0.00463924 -0.0477823 0)
(-0.00498984 0.0610866 0)
(-0.0270687 0.155249 0)
(-0.0671061 0.21821 0)
(-0.114314 0.251207 0)
(-0.161837 0.257992 0)
(-0.205899 0.243075 0)
(-0.244131 0.210869 0)
(-0.275135 0.165327 0)
(-0.298125 0.10987 0)
(-0.312573 0.0475359 0)
(-0.317973 -0.0187498 0)
(-0.313716 -0.0858379 0)
(-0.299112 -0.150003 0)
(-0.273572 -0.206637 0)
(-0.236995 -0.250091 0)
(-0.190385 -0.273823 0)
(-0.136516 -0.271035 0)
(-0.0806376 -0.235935 0)
(-0.0323366 -0.165637 0)
(-0.00582049 -0.0628248 0)
(-0.005894 0.0761641 0)
(-0.0310139 0.190376 0)
(-0.0751918 0.263847 0)
(-0.125531 0.299852 0)
(-0.17439 0.304532 0)
(-0.218178 0.284411 0)
(-0.255112 0.245334 0)
(-0.284516 0.192116 0)
(-0.306291 0.128576 0)
(-0.320451 0.0578102 0)
(-0.326806 -0.0174104 0)
(-0.324784 -0.0941655 0)
(-0.313394 -0.168874 0)
(-0.29138 -0.23678 0)
(-0.257635 -0.291533 0)
(-0.211961 -0.325072 0)
(-0.156063 -0.328101 0)
(-0.0948299 -0.291502 0)
(-0.0392761 -0.208966 0)
(-0.00740407 -0.0811907 0)
(-0.00715052 0.0936105 0)
(-0.0359101 0.229623 0)
(-0.0841454 0.31289 0)
(-0.136299 0.349974 0)
(-0.184101 0.350506 0)
(-0.224616 0.32369 0)
(-0.257126 0.277087 0)
(-0.282067 0.216402 0)
(-0.300318 0.145726 0)
(-0.312652 0.0679976 0)
(-0.319362 -0.0144426 0)
(-0.320038 -0.0992445 0)
(-0.313466 -0.183371 0)
(-0.297687 -0.26235 0)
(-0.270358 -0.329507 0)
(-0.229567 -0.375396 0)
(-0.17512 -0.387832 0)
(-0.110577 -0.353169 0)
(-0.0478785 -0.259637 0)
(-0.00959547 -0.103759 0)
(-0.009075 0.11422 0)
(-0.0424523 0.273438 0)
(-0.0943753 0.36441 0)
(-0.146022 0.399228 0)
(-0.189004 0.392625 0)
(-0.221859 0.357259 0)
(-0.245607 0.302606 0)
(-0.262239 0.235158 0)
(-0.27389 0.159047 0)
(-0.282261 0.076773 0)
(-0.288273 -0.0100675 0)
(-0.291836 -0.10006 0)
(-0.291672 -0.191174 0)
(-0.285231 -0.279803 0)
(-0.268863 -0.359595 0)
(-0.238502 -0.420232 0)
(-0.19106 -0.44659 0)
(-0.127252 -0.419277 0)
(-0.0586324 -0.318204 0)
(-0.0127453 -0.131765 0)
(-0.0122599 0.139451 0)
(-0.0517534 0.322364 0)
(-0.106165 0.41657 0)
(-0.153148 0.443758 0)
(-0.185492 0.42597 0)
(-0.20455 0.380018 0)
(-0.213912 0.31722 0)
(-0.217528 0.244494 0)
(-0.218919 0.165612 0)
(-0.220745 0.0822932 0)
(-0.224594 -0.00490586 0)
(-0.230827 -0.095827 0)
(-0.238352 -0.189886 0)
(-0.244358 -0.284999 0)
(-0.244139 -0.376067 0)
(-0.231352 -0.452951 0)
(-0.199093 -0.498263 0)
(-0.143177 -0.486115 0)
(-0.0720884 -0.384552 0)
(-0.017442 -0.167001 0)
(-0.0177196 0.17188 0)
(-0.0652789 0.376653 0)
(-0.118782 0.465651 0)
(-0.153606 0.477273 0)
(-0.166576 0.443451 0)
(-0.163792 0.3853 0)
(-0.152197 0.31529 0)
(-0.137797 0.239971 0)
(-0.125289 0.162151 0)
(-0.118021 0.082399 0)
(-0.118082 2.46141e-05 0)
(-0.126311 -0.0862248 0)
(-0.142104 -0.177475 0)
(-0.162962 -0.273739 0)
(-0.183877 -0.37226 0)
(-0.196794 -0.464754 0)
(-0.190695 -0.533417 0)
(-0.154301 -0.546522 0)
(-0.0884003 -0.45688 0)
(-0.0245393 -0.212009 0)
(-0.026785 0.215892 0)
(-0.0837994 0.434979 0)
(-0.127694 0.504046 0)
(-0.137216 0.489702 0)
(-0.11857 0.435436 0)
(-0.0846468 0.365255 0)
(-0.0458294 0.290994 0)
(-0.00950841 0.217498 0)
(0.019273 0.145846 0)
(0.0371923 0.07516 0)
(0.0421331 0.00351015 0)
(0.0329288 -0.0716179 0)
(0.00944911 -0.152952 0)
(-0.0268869 -0.242809 0)
(-0.0720857 -0.341692 0)
(-0.118056 -0.445264 0)
(-0.150891 -0.538672 0)
(-0.151162 -0.587847 0)
(-0.105494 -0.529676 0)
(-0.0346773 -0.270337 0)
(-0.0396401 0.279196 0)
(-0.103047 0.490803 0)
(-0.117145 0.515929 0)
(-0.0802216 0.465018 0)
(-0.0155272 0.389733 0)
(0.0572325 0.312052 0)
(0.126203 0.239959 0)
(0.184631 0.174905 0)
(0.228761 0.115621 0)
(0.256456 0.0597849 0)
(0.266313 0.00459296 0)
(0.257203 -0.0531586 0)
(0.228194 -0.117141 0)
(0.178925 -0.191458 0)
(0.110709 -0.280013 0)
(0.0287931 -0.384156 0)
(-0.0539296 -0.496574 0)
(-0.112713 -0.588956 0)
(-0.113865 -0.589672 0)
(-0.0459197 -0.347287 0)
(-0.0478537 0.370114 0)
(-0.099606 0.521711 0)
(-0.0427434 0.470737 0)
(0.0681678 0.380791 0)
(0.188329 0.294522 0)
(0.298589 0.221729 0)
(0.39149 0.16272 0)
(0.46445 0.114619 0)
(0.517085 0.0740217 0)
(0.549639 0.0378156 0)
(0.562117 0.00314379 0)
(0.553878 -0.0329127 0)
(0.52343 -0.073771 0)
(0.468451 -0.123866 0)
(0.38638 -0.189067 0)
(0.276311 -0.276153 0)
(0.142943 -0.389104 0)
(0.00517232 -0.517896 0)
(-0.0837348 -0.60518 0)
(-0.0447676 -0.44268 0)
(0.00832147 0.442682 0)
(0.022272 0.463416 0)
(0.206923 0.333667 0)
(0.403701 0.230067 0)
(0.562797 0.15848 0)
(0.68585 0.109159 0)
(0.778921 0.0747981 0)
(0.846744 0.0499867 0)
(0.893171 0.03093 0)
(0.920909 0.015048 0)
(0.931344 0.000440393 0)
(0.924511 -0.01459 0)
(0.898935 -0.0320404 0)
(0.851279 -0.0548184 0)
(0.775932 -0.0877355 0)
(0.664871 -0.138869 0)
(0.50718 -0.220623 0)
(0.294367 -0.347287 0)
(0.0768716 -0.505694 0)
(0.0348126 -0.488865 0)
(0.475191 0.232066 0)
(0.625021 0.203367 0)
(0.878886 0.122859 0)
(1.06616 0.0718208 0)
(1.17904 0.0427748 0)
(1.25052 0.0259119 0)
(1.2981 0.0158828 0)
(1.3297 0.00963975 0)
(1.34976 0.00542723 0)
(1.36085 0.00224906 0)
(1.36423 -0.000501187 0)
(1.36017 -0.00327995 0)
(1.34794 -0.00661571 0)
(1.32552 -0.0113441 0)
(1.28869 -0.0190935 0)
(1.22926 -0.0332283 0)
(1.12866 -0.060614 0)
(0.946275 -0.11411 0)
(0.674807 -0.204188 0)
(0.498739 -0.240608 0)
)
;

boundaryField
{
    movingWall
    {
        type            fixedValue;
        value           uniform (1.6 0 0);
    }
    fixedWalls
    {
        type            noSlip;
    }
    frontAndBack
    {
        type            empty;
    }
}


// ************************************************************************* //
