/*--------------------------------*- C++ -*----------------------------------*\
  =========                 |
  \\      /  F ield         | OpenFOAM: The Open Source CFD Toolbox
   \\    /   O peration     | Website:  https://openfoam.org
    \\  /    A nd           | Version:  8
     \\/     M anipulation  |
\*---------------------------------------------------------------------------*/
FoamFile
{
    version     2.0;
    format      ascii;
    class       surfaceScalarField;
    location    "0.5";
    object      phi;
}
// * * * * * * * * * * * * * * * * * * * * * * * * * * * * * * * * * * * * * //

dimensions      [0 3 -1 0 0 0 0];

internalField   nonuniform List<scalar> 
760
(
2.4845e-08
-2.48335e-08
-4.20011e-08
6.68459e-08
-2.07874e-07
1.65873e-07
-4.42679e-07
2.34805e-07
-7.1136e-07
2.68682e-07
-9.81317e-07
2.69958e-07
-1.22461e-06
2.43296e-07
-1.41859e-06
1.93977e-07
-1.54591e-06
1.27319e-07
-1.59471e-06
4.88e-08
-1.55914e-06
-3.55722e-08
-1.4402e-06
-1.18938e-07
-1.2467e-06
-1.93495e-07
-9.95962e-07
-2.50742e-07
-7.13822e-07
-2.82141e-07
-4.33556e-07
-2.80266e-07
-1.93029e-07
-2.40528e-07
-2.96622e-08
-1.63368e-07
2.95165e-08
-5.91793e-08
2.95162e-08
-6.35186e-08
3.86851e-08
-3.28919e-07
3.32246e-07
-7.85579e-07
6.22533e-07
-1.37775e-06
8.26975e-07
-2.03542e-06
9.26351e-07
-2.68841e-06
9.22948e-07
-3.27344e-06
8.28329e-07
-3.73759e-06
6.58127e-07
-4.04001e-06
4.29736e-07
-4.1532e-06
1.61992e-07
-4.0645e-06
-1.24276e-07
-3.77773e-06
-4.05709e-07
-3.31477e-06
-6.56455e-07
-2.7163e-06
-8.49212e-07
-2.04087e-06
-9.57566e-07
-1.36132e-06
-9.59819e-07
-7.57394e-07
-8.44454e-07
-3.03853e-07
-6.16909e-07
-5.24314e-08
-3.10601e-07
-2.29157e-08
-1.68952e-07
2.07637e-07
-6.48522e-07
8.11815e-07
-1.3819e-06
1.35591e-06
-2.28509e-06
1.73016e-06
-3.26244e-06
1.9037e-06
-4.21914e-06
1.87965e-06
-5.06919e-06
1.67838e-06
-5.7401e-06
1.32904e-06
-6.17574e-06
8.65373e-07
-6.33842e-06
3.24669e-07
-6.21097e-06
-2.51722e-07
-5.7989e-06
-8.17779e-07
-5.13221e-06
-1.32315e-06
-4.26615e-06
-1.71527e-06
-3.27984e-06
-1.94388e-06
-2.27144e-06
-1.96822e-06
-1.34887e-06
-1.76702e-06
-6.15756e-07
-1.35003e-06
-1.53018e-07
-7.73339e-07
-1.75934e-07
-2.6512e-07
4.72757e-07
-9.52403e-07
1.4991e-06
-1.95162e-06
2.35513e-06
-3.1438e-06
2.92234e-06
-4.4079e-06
3.1678e-06
-5.62922e-06
3.10097e-06
-6.70567e-06
2.75482e-06
-7.55182e-06
2.17519e-06
-8.10161e-06
1.41516e-06
-8.31045e-06
5.33512e-07
-8.15746e-06
-4.04718e-07
-7.64785e-06
-1.32739e-06
-6.81528e-06
-2.15573e-06
-5.72314e-06
-2.80741e-06
-4.46386e-06
-3.20316e-06
-3.15453e-06
-3.27755e-06
-1.92793e-06
-2.99362e-06
-9.18595e-07
-2.35936e-06
-2.459e-07
-1.44603e-06
-4.21834e-07
-3.52387e-07
8.25143e-07
-1.23771e-06
2.38442e-06
-2.4928e-06
3.61022e-06
-3.96042e-06
4.38996e-06
-5.49308e-06
4.70047e-06
-6.95801e-06
4.5659e-06
-8.24067e-06
4.03748e-06
-9.24691e-06
3.18143e-06
-9.90422e-06
2.07248e-06
-1.01631e-05
7.92384e-07
-9.99881e-06
-5.69003e-07
-9.41404e-06
-1.91215e-06
-8.44192e-06
-3.12785e-06
-7.14881e-06
-4.10051e-06
-5.63549e-06
-4.71649e-06
-4.03492e-06
-4.87811e-06
-2.50512e-06
-4.52342e-06
-1.21621e-06
-3.64828e-06
-3.33303e-07
-2.32894e-06
-7.55137e-07
-4.34606e-07
1.25975e-06
-1.51101e-06
3.46083e-06
-3.01432e-06
5.11353e-06
-4.74752e-06
6.12316e-06
-6.53605e-06
6.489e-06
-8.23037e-06
6.26022e-06
-9.70634e-06
5.51345e-06
-1.08644e-05
4.33946e-06
-1.16284e-05
2.83651e-06
-1.19455e-05
1.10944e-06
-1.17866e-05
-7.27871e-07
-1.11494e-05
-2.54931e-06
-1.00624e-05
-4.21491e-06
-8.58951e-06
-5.57338e-06
-6.83519e-06
-6.47081e-06
-4.94563e-06
-6.76768e-06
-3.10509e-06
-6.36396e-06
-1.52446e-06
-5.22891e-06
-4.22219e-07
-3.43118e-06
-1.17736e-06
-5.15554e-07
1.7753e-06
-1.78013e-06
4.7254e-06
-3.52603e-06
6.85943e-06
-5.51503e-06
8.11216e-06
-7.5456e-06
8.51957e-06
-9.45342e-06
8.16804e-06
-1.11081e-05
7.16816e-06
-1.24086e-05
5.63993e-06
-1.32785e-05
3.70638e-06
-1.36632e-05
1.49417e-06
-1.35294e-05
-8.61634e-07
-1.28673e-05
-3.21145e-06
-1.16956e-05
-5.38655e-06
-1.00701e-05
-7.19888e-06
-8.09232e-06
-8.44864e-06
-5.91715e-06
-8.94285e-06
-3.75477e-06
-8.52634e-06
-1.86195e-06
-7.12173e-06
-5.20264e-07
-4.77287e-06
-1.69762e-06
-5.98514e-07
2.37382e-06
-2.05207e-06
6.17895e-06
-4.03533e-06
8.84269e-06
-6.2664e-06
1.03432e-05
-8.51754e-06
1.07707e-05
-1.06132e-05
1.02637e-05
-1.24219e-05
8.9769e-06
-1.38465e-05
7.06452e-06
-1.48151e-05
4.67493e-06
-1.52746e-05
1.95365e-06
-1.5188e-05
-9.48237e-07
-1.45357e-05
-3.86373e-06
-1.33219e-05
-6.60036e-06
-1.15857e-05
-8.93505e-06
-9.41651e-06
-1.06178e-05
-6.96975e-06
-1.13896e-05
-4.47765e-06
-1.10184e-05
-2.24685e-06
-9.35253e-06
-6.35007e-07
-6.38471e-06
-2.33263e-06
-6.86675e-07
3.06049e-06
-2.3332e-06
7.82548e-06
-4.54658e-06
1.10561e-05
-6.99697e-06
1.27936e-05
-9.43228e-06
1.3206e-05
-1.16717e-05
1.25031e-05
-1.35904e-05
1.08957e-05
-1.51034e-05
8.57746e-06
-1.615e-05
5.72159e-06
-1.6684e-05
2.48761e-06
-1.66668e-05
-9.65386e-07
-1.60681e-05
-4.46253e-06
-1.48716e-05
-7.79685e-06
-1.30902e-05
-1.07164e-05
-1.07878e-05
-1.29203e-05
-8.10604e-06
-1.40713e-05
-5.28952e-06
-1.3835e-05
-2.69561e-06
-1.19464e-05
-7.74099e-07
-8.30622e-06
-3.10672e-06
-7.84332e-07
3.84482e-06
-2.63122e-06
9.67236e-06
-5.06238e-06
1.34872e-05
-7.69371e-06
1.54249e-05
-1.02526e-05
1.5765e-05
-1.25628e-05
1.48132e-05
-1.45179e-05
1.28508e-05
-1.60564e-05
1.01159e-05
-1.7139e-05
6.80418e-06
-1.77333e-05
3.08197e-06
-1.78041e-05
-8.94557e-07
-1.73105e-05
-4.95618e-06
-1.62114e-05
-8.89594e-06
-1.44823e-05
-1.24455e-05
-1.21437e-05
-1.52589e-05
-9.30183e-06
-1.69132e-05
-6.1942e-06
-1.69426e-05
-3.22248e-06
-1.49182e-05
-9.46058e-07
-1.05826e-05
-4.05278e-06
-8.99048e-07
4.74387e-06
-2.95852e-06
1.17318e-05
-5.58564e-06
1.61143e-05
-8.33434e-06
1.81736e-05
-1.092e-05
1.83506e-05
-1.31865e-05
1.70797e-05
-1.50632e-05
1.47275e-05
-1.6527e-05
1.15797e-05
-1.75728e-05
7.84993e-06
-1.81921e-05
3.70126e-06
-1.83597e-05
-7.26929e-07
-1.80275e-05
-5.28835e-06
-1.71274e-05
-9.79609e-06
-1.55866e-05
-1.39862e-05
-1.33618e-05
-1.74837e-05
-1.0493e-05
-1.9782e-05
-7.17694e-06
-2.02586e-05
-3.83899e-06
-1.82561e-05
-1.16169e-06
-1.32599e-05
-5.21448e-06
-1.04522e-06
5.7891e-06
-3.33662e-06
1.40232e-05
-6.12037e-06
1.88981e-05
-8.88274e-06
2.0936e-05
-1.13454e-05
2.08133e-05
-1.33976e-05
1.91319e-05
-1.50278e-05
1.63577e-05
-1.62704e-05
1.28223e-05
-1.71684e-05
8.74798e-06
-1.77486e-05
4.28147e-06
-1.80049e-05
-4.70632e-07
-1.78887e-05
-5.40457e-06
-1.73067e-05
-1.0378e-05
-1.6132e-05
-1.5161e-05
-1.42363e-05
-1.93795e-05
-1.15552e-05
-2.24631e-05
-8.19275e-06
-2.3621e-05
-4.55199e-06
-2.18969e-05
-1.43647e-06
-1.63755e-05
-6.65095e-06
-1.24991e-06
7.03901e-06
-3.80022e-06
1.65735e-05
-6.66649e-06
2.17644e-05
-9.27377e-06
2.35433e-05
-1.13877e-05
2.29272e-05
-1.29827e-05
2.07269e-05
-1.41364e-05
1.75114e-05
-1.49606e-05
1.36466e-05
-1.55596e-05
9.34691e-06
-1.60045e-05
4.7264e-06
-1.63177e-05
-1.57411e-07
-1.64602e-05
-5.26206e-06
-1.63229e-05
-1.05154e-05
-1.5727e-05
-1.57568e-05
-1.44465e-05
-2.066e-05
-1.22724e-05
-2.46372e-05
-9.14446e-06
-2.6749e-05
-5.35745e-06
-2.56839e-05
-1.79407e-06
-1.99388e-05
-8.44501e-06
-1.56156e-06
8.60057e-06
-4.39582e-06
1.94078e-05
-7.19701e-06
2.45656e-05
-9.3732e-06
2.57195e-05
-1.08077e-05
2.43618e-05
-1.16175e-05
2.15367e-05
-1.20034e-05
1.78973e-05
-1.21699e-05
1.3813e-05
-1.22872e-05
9.4642e-06
-1.24739e-05
4.91314e-06
-1.27864e-05
1.5505e-07
-1.32068e-05
-4.84167e-06
-1.36278e-05
-1.00944e-05
-1.38373e-05
-1.55472e-05
-1.35176e-05
-2.09797e-05
-1.22879e-05
-2.58669e-05
-9.84043e-06
-2.91965e-05
-6.2224e-06
-2.93019e-05
-2.27018e-06
-2.38911e-05
-1.07152e-05
-2.0587e-06
1.06593e-05
-5.15703e-06
2.25061e-05
-7.58905e-06
2.69976e-05
-8.88432e-06
2.70148e-05
-9.17387e-06
2.46513e-05
-8.78917e-06
2.1152e-05
-8.07898e-06
1.71871e-05
-7.33849e-06
1.30726e-05
-6.79165e-06
8.91736e-06
-6.59262e-06
4.71411e-06
-6.82814e-06
3.90566e-07
-7.51098e-06
-4.15883e-06
-8.56087e-06
-9.04449e-06
-9.77158e-06
-1.43365e-05
-1.07741e-05
-1.99772e-05
-1.10278e-05
-2.56133e-05
-9.91127e-06
-3.03129e-05
-7.0328e-06
-3.21804e-05
-2.90796e-06
-2.80159e-05
-1.36232e-05
-2.83537e-06
1.34946e-05
-5.99788e-06
2.56686e-05
-7.44191e-06
2.84416e-05
-7.15009e-06
2.67229e-05
-5.69328e-06
2.31945e-05
-3.67398e-06
1.91327e-05
-1.57529e-06
1.50884e-05
2.56728e-07
1.12405e-05
1.58658e-06
7.5875e-06
2.25746e-06
4.04323e-06
2.17046e-06
4.77571e-07
1.28054e-06
-3.26892e-06
-3.86325e-07
-7.37763e-06
-2.68833e-06
-1.20345e-05
-5.29265e-06
-1.73729e-05
-7.58652e-06
-2.33194e-05
-8.64775e-06
-2.92517e-05
-7.45145e-06
-3.33767e-05
-3.71017e-06
-3.17572e-05
-1.73333e-05
-3.88727e-06
1.73819e-05
-6.36837e-06
2.81497e-05
-5.64524e-06
2.77185e-05
-2.77632e-06
2.3854e-05
1.05315e-06
1.9365e-05
5.0162e-06
1.51696e-05
8.60095e-06
1.15037e-05
1.15112e-05
8.33028e-06
1.35774e-05
5.52127e-06
1.46942e-05
2.92648e-06
1.47831e-05
3.88701e-07
1.37779e-05
-2.26377e-06
1.16322e-05
-5.23194e-06
8.35985e-06
-8.76215e-06
4.12894e-06
-1.3142e-05
-5.70886e-07
-1.86196e-05
-4.70842e-06
-2.51142e-05
-6.58658e-06
-3.14985e-05
-4.46768e-06
-3.38761e-05
-2.1801e-05
-4.68838e-06
2.20703e-05
-4.29894e-06
2.77603e-05
5.4065e-07
2.28789e-05
6.98908e-06
1.74056e-05
1.34314e-05
1.29227e-05
1.91424e-05
9.45869e-06
2.3833e-05
6.8131e-06
2.74159e-05
4.74731e-06
2.9881e-05
3.05616e-06
3.12286e-05
1.57891e-06
3.14351e-05
1.82189e-07
3.04363e-05
-1.26499e-06
2.81196e-05
-2.91522e-06
2.43383e-05
-4.98082e-06
1.89732e-05
-7.77688e-06
1.21045e-05
-1.17509e-05
4.38901e-06
-1.73987e-05
-2.27975e-06
-2.48298e-05
-4.31066e-06
-3.18452e-05
-2.61117e-05
-1.841e-06
2.39113e-05
6.40716e-06
1.95121e-05
1.72241e-05
1.2062e-05
2.69439e-05
7.6857e-06
3.48194e-05
5.04717e-06
4.09188e-05
3.35933e-06
4.5485e-05
2.24691e-06
4.87552e-05
1.47706e-06
5.09086e-05
9.02768e-07
5.20547e-05
4.32867e-07
5.22302e-05
6.69533e-09
5.13966e-05
-4.31452e-07
4.94208e-05
-9.3941e-07
4.60524e-05
-1.61245e-06
4.0895e-05
-2.61948e-06
3.34275e-05
-4.28332e-06
2.32426e-05
-7.21381e-06
1.09022e-05
-1.24893e-05
2.76144e-07
-2.12192e-05
-2.58355e-05
2.39113e-05
4.34234e-05
5.54854e-05
6.31711e-05
6.82183e-05
7.15776e-05
7.38245e-05
7.53016e-05
7.62044e-05
7.66372e-05
7.66439e-05
7.62125e-05
7.52731e-05
7.36606e-05
7.10411e-05
6.67578e-05
5.9544e-05
4.70547e-05
2.58355e-05
)
;

boundaryField
{
    movingWall
    {
        type            calculated;
        value           uniform 0;
    }
    fixedWalls
    {
        type            calculated;
        value           uniform 0;
    }
    frontAndBack
    {
        type            empty;
        value           nonuniform List<scalar> 0();
    }
}


// ************************************************************************* //
