/*--------------------------------*- C++ -*----------------------------------*\
  =========                 |
  \\      /  F ield         | OpenFOAM: The Open Source CFD Toolbox
   \\    /   O peration     | Website:  https://openfoam.org
    \\  /    A nd           | Version:  8
     \\/     M anipulation  |
\*---------------------------------------------------------------------------*/
FoamFile
{
    version     2.0;
    format      ascii;
    class       volScalarField;
    location    "0.2";
    object      p;
}
// * * * * * * * * * * * * * * * * * * * * * * * * * * * * * * * * * * * * * //

dimensions      [0 2 -2 0 0 0 0];

internalField   nonuniform List<scalar> 
400
(
5.1126e-07
-0.0269453
-0.05877
-0.082646
-0.0918462
-0.0835418
-0.0573312
-0.0143695
0.0429728
0.11109
0.18505
0.25866
0.324887
0.376691
0.408243
0.416366
0.401912
0.370774
0.334147
0.307767
0.0267823
-0.00114604
-0.0259966
-0.0422056
-0.0471348
-0.0388884
-0.0169896
0.0178736
0.0640448
0.11883
0.178408
0.237897
0.291707
0.334245
0.360916
0.369262
0.360018
0.33752
0.308528
0.281772
0.0604708
0.0219414
-0.00460471
-0.0191165
-0.0231118
-0.0158868
0.00276261
0.0323322
0.0716846
0.118835
0.170738
0.22326
0.27144
0.310108
0.334805
0.342866
0.334461
0.312701
0.280811
0.24322
0.0883457
0.0357519
0.00330702
-0.0129391
-0.0181252
-0.0126315
0.00342271
0.0296323
0.0652885
0.108986
0.158232
0.209265
0.257202
0.296587
0.322314
0.330809
0.321306
0.295914
0.255323
0.201894
0.101203
0.0345284
-0.00476052
-0.0238834
-0.0311123
-0.0276967
-0.0139553
0.00988475
0.0435874
0.0863336
0.136135
0.18947
0.241274
0.285404
0.315573
0.326717
0.316695
0.286545
0.234872
0.163131
0.0917828
0.0119155
-0.0341928
-0.0565723
-0.0662168
-0.0650337
-0.0533783
-0.0311616
0.00196743
0.0458724
0.0991373
0.158484
0.218554
0.272216
0.311489
0.32914
0.320997
0.286631
0.222544
0.129982
0.0539277
-0.0379824
-0.0904679
-0.116091
-0.128274
-0.129427
-0.119788
-0.0987889
-0.065312
-0.0186118
0.0406791
0.109706
0.182874
0.251892
0.306575
0.336675
0.33499
0.298748
0.221655
0.104971
-0.0178878
-0.120608
-0.178771
-0.207334
-0.221999
-0.225616
-0.218196
-0.198519
-0.164467
-0.114098
-0.0468739
0.0351764
0.126535
0.217793
0.296131
0.347289
0.35959
0.326343
0.236783
0.0918208
-0.128745
-0.241096
-0.304025
-0.334889
-0.351722
-0.357881
-0.35312
-0.335416
-0.301375
-0.247444
-0.171354
-0.0736421
0.0408999
0.162139
0.274447
0.358503
0.396251
0.37455
0.275098
0.0971825
-0.283328
-0.404345
-0.47077
-0.502622
-0.520671
-0.529061
-0.527361
-0.512645
-0.479963
-0.423666
-0.339048
-0.224227
-0.0822317
0.0769992
0.235363
0.367697
0.44734
0.451047
0.34791
0.132707
-0.486126
-0.615258
-0.683072
-0.713127
-0.729995
-0.739191
-0.740311
-0.729478
-0.699911
-0.643361
-0.551903
-0.420136
-0.247904
-0.043402
0.173979
0.37322
0.516992
0.567252
0.472762
0.217984
-0.742227
-0.879438
-0.944611
-0.967119
-0.977602
-0.98393
-0.98603
-0.979021
-0.954004
-0.899632
-0.804007
-0.657077
-0.453872
-0.198701
0.0900452
0.376925
0.612963
0.740192
0.676384
0.385101
-1.05954
-1.20477
-1.25901
-1.26274
-1.25687
-1.25296
-1.25146
-1.24625
-1.22589
-1.17542
-1.07831
-0.918917
-0.685905
-0.377272
-0.00704468
0.388414
0.749915
0.995495
0.999099
0.68619
-1.45419
-1.60449
-1.6303
-1.59459
-1.55526
-1.52868
-1.51535
-1.50715
-1.48932
-1.44262
-1.34536
-1.17565
-0.914712
-0.552036
-0.0933318
0.429882
0.953589
1.37144
1.50144
1.20653
-1.96292
-2.10251
-2.06271
-1.95175
-1.85255
-1.78526
-1.74833
-1.72975
-1.70996
-1.66448
-1.56594
-1.38593
-1.09774
-0.680964
-0.129273
0.538124
1.26291
1.92164
2.27161
2.08465
-2.66863
-2.74126
-2.55872
-2.31456
-2.11901
-1.98872
-1.91481
-1.87768
-1.85052
-1.80216
-1.69902
-1.50613
-1.1888
-0.716146
-0.0669617
0.759797
1.72671
2.71187
3.4267
3.53165
-3.7539
-3.59061
-3.11684
-2.65503
-2.31809
-2.10158
-1.97956
-1.91858
-1.88079
-1.82674
-1.71602
-1.50723
-1.15756
-0.625201
0.128793
1.13384
2.39085
3.80974
5.11233
5.86203
-5.67836
-4.74618
-3.701
-2.91788
-2.39709
-2.0804
-1.91081
-1.83133
-1.78851
-1.73335
-1.61903
-1.39855
-1.02117
-0.43342
0.425885
1.62582
3.22852
5.22999
7.53283
9.72188
-9.75188
-6.24031
-4.00599
-2.83469
-2.16712
-1.79979
-1.63125
-1.57498
-1.56106
-1.53369
-1.44313
-1.23975
-0.87121
-0.272991
0.637556
1.97931
3.91877
6.68278
10.8186
16.5591
-17.5839
-7.66925
-3.37134
-1.96962
-1.38055
-1.12478
-1.07307
-1.12482
-1.20472
-1.25922
-1.24322
-1.11196
-0.815697
-0.292979
0.541869
1.83468
3.87555
7.32103
14.073
26.4584
)
;

boundaryField
{
    movingWall
    {
        type            zeroGradient;
    }
    fixedWalls
    {
        type            zeroGradient;
    }
    frontAndBack
    {
        type            empty;
    }
}


// ************************************************************************* //
