/*--------------------------------*- C++ -*----------------------------------*\
  =========                 |
  \\      /  F ield         | OpenFOAM: The Open Source CFD Toolbox
   \\    /   O peration     | Website:  https://openfoam.org
    \\  /    A nd           | Version:  8
     \\/     M anipulation  |
\*---------------------------------------------------------------------------*/
FoamFile
{
    version     2.0;
    format      ascii;
    class       surfaceScalarField;
    location    "0.2";
    object      phi;
}
// * * * * * * * * * * * * * * * * * * * * * * * * * * * * * * * * * * * * * //

dimensions      [0 3 -1 0 0 0 0];

internalField   nonuniform List<scalar> 
760
(
5.85539e-08
-5.85586e-08
-1.19807e-07
1.78361e-07
-5.43398e-07
4.23592e-07
-1.13222e-06
5.88825e-07
-1.8015e-06
6.6928e-07
-2.47653e-06
6.75033e-07
-3.09379e-06
6.17264e-07
-3.59909e-06
5.05292e-07
-3.94609e-06
3.47002e-07
-4.09735e-06
1.51267e-07
-4.02807e-06
-6.92809e-08
-3.73179e-06
-2.96277e-07
-3.22646e-06
-5.05336e-07
-2.55866e-06
-6.678e-07
-1.80388e-06
-7.54778e-07
-1.06075e-06
-7.43129e-07
-4.38145e-07
-6.22607e-07
-3.53299e-08
-4.02817e-07
8.97109e-08
-1.2504e-07
8.97126e-08
-1.75849e-07
1.1729e-07
-8.7057e-07
8.73086e-07
-2.03888e-06
1.5919e-06
-3.53449e-06
2.08444e-06
-5.18754e-06
2.32233e-06
-6.83392e-06
2.32142e-06
-8.32553e-06
2.10888e-06
-9.53305e-06
1.71281e-06
-1.03477e-05
1.16169e-06
-1.0686e-05
4.89491e-07
-1.04975e-05
-2.5779e-07
-9.7759e-06
-1.01783e-06
-8.56933e-06
-1.71191e-06
-6.98617e-06
-2.25096e-06
-5.19312e-06
-2.54783e-06
-3.40086e-06
-2.53539e-06
-1.8355e-06
-2.18797e-06
-6.96175e-07
-1.54214e-06
-1.00384e-07
-7.2083e-07
-1.06718e-08
-4.54703e-07
5.71994e-07
-1.70556e-06
2.12394e-06
-3.58289e-06
3.46923e-06
-5.86938e-06
4.37093e-06
-8.33412e-06
4.78706e-06
-1.07549e-05
4.74222e-06
-1.2929e-05
4.28299e-06
-1.46781e-05
3.46183e-06
-1.58524e-05
2.33598e-06
-1.63382e-05
9.7534e-07
-1.60686e-05
-5.27435e-07
-1.50361e-05
-2.05025e-06
-1.33059e-05
-3.44217e-06
-1.10225e-05
-4.53435e-06
-8.40806e-06
-5.16225e-06
-5.74491e-06
-5.19854e-06
-3.3405e-06
-4.59238e-06
-1.47603e-06
-3.40661e-06
-3.45395e-07
-1.85147e-06
-3.56069e-07
-7.09414e-07
1.28141e-06
-2.49549e-06
3.91003e-06
-5.04653e-06
6.02027e-06
-8.05983e-06
7.38423e-06
-1.12468e-05
7.97408e-06
-1.43413e-05
7.83667e-06
-1.71035e-05
7.04524e-06
-1.93232e-05
5.6815e-06
-2.08232e-05
3.83599e-06
-2.14673e-05
1.61947e-06
-2.1172e-05
-8.22793e-07
-1.99209e-05
-3.30132e-06
-1.77804e-05
-5.58264e-06
-1.49108e-05
-7.40402e-06
-1.15679e-05
-8.50513e-06
-8.08948e-06
-8.67694e-06
-4.86001e-06
-7.82185e-06
-2.25537e-06
-6.01126e-06
-5.77245e-07
-3.52959e-06
-9.33316e-07
-9.36791e-07
2.2182e-06
-3.2203e-06
6.19354e-06
-6.40211e-06
9.20207e-06
-1.00907e-05
1.10729e-05
-1.39417e-05
1.1825e-05
-1.76525e-05
1.15474e-05
-2.09578e-05
1.03505e-05
-2.36264e-05
8.35014e-06
-2.5462e-05
5.67158e-06
-2.63086e-05
2.4661e-06
-2.60621e-05
-1.06933e-06
-2.4686e-05
-4.67741e-06
-2.2231e-05
-8.03762e-06
-1.88533e-05
-1.07817e-05
-1.4826e-05
-1.25325e-05
-1.05344e-05
-1.29685e-05
-6.44704e-06
-1.19092e-05
-3.05689e-06
-9.4014e-06
-8.03868e-07
-5.78262e-06
-1.73718e-06
-1.14095e-06
3.35915e-06
-3.88053e-06
8.93311e-06
-7.64517e-06
1.29667e-05
-1.19582e-05
1.53859e-05
-1.64233e-05
1.62901e-05
-2.07086e-05
1.58327e-05
-2.45322e-05
1.41741e-05
-2.76508e-05
1.14688e-05
-2.9855e-05
7.87575e-06
-3.09702e-05
3.58133e-06
-3.08663e-05
-1.17323e-06
-2.94743e-05
-6.06943e-06
-2.68105e-05
-1.07014e-05
-2.30054e-05
-1.45869e-05
-1.83297e-05
-1.72082e-05
-1.32076e-05
-1.80906e-05
-8.19908e-06
-1.69177e-05
-3.94127e-06
-1.36592e-05
-1.0495e-06
-8.67439e-06
-2.78668e-06
-1.32503e-06
4.68418e-06
-4.47829e-06
1.20864e-05
-8.77195e-06
1.72604e-05
-1.36505e-05
2.02645e-05
-1.86721e-05
2.13117e-05
-2.34838e-05
2.06445e-05
-2.77967e-05
1.84869e-05
-3.13649e-05
1.50371e-05
-3.39731e-05
1.04839e-05
-3.54307e-05
5.03902e-06
-3.55782e-05
-1.02579e-06
-3.43022e-05
-7.34537e-06
-3.15653e-05
-1.34384e-05
-2.74457e-05
-1.87064e-05
-2.2185e-05
-2.24689e-05
-1.62264e-05
-2.40492e-05
-1.02219e-05
-2.29223e-05
-4.98008e-06
-1.8901e-05
-1.34202e-06
-1.23124e-05
-4.12871e-06
-1.49062e-06
6.1748e-06
-5.01355e-06
1.56093e-05
-9.77351e-06
2.20203e-05
-1.5142e-05
2.5633e-05
-2.06396e-05
2.68093e-05
-2.59028e-05
2.59077e-05
-3.06477e-05
2.32318e-05
-3.46385e-05
1.90278e-05
-3.76644e-05
1.35098e-05
-3.95267e-05
6.90132e-06
-4.00373e-05
-5.15207e-07
-3.90316e-05
-8.3511e-06
-3.63994e-05
-1.60706e-05
-3.21368e-05
-2.2969e-05
-2.64167e-05
-2.81889e-05
-1.96645e-05
-3.08014e-05
-1.26067e-05
-2.99801e-05
-6.24479e-06
-2.52629e-05
-1.71056e-06
-1.68467e-05
-5.83926e-06
-1.63935e-06
7.81414e-06
-5.48673e-06
1.94567e-05
-1.06387e-05
2.71723e-05
-1.63965e-05
3.13908e-05
-2.22518e-05
3.26647e-05
-2.78442e-05
3.15e-05
-3.29108e-05
2.82984e-05
-3.72426e-05
2.33597e-05
-4.06505e-05
1.69176e-05
-4.29415e-05
9.19235e-06
-4.3909e-05
4.52324e-07
-4.3338e-05
-8.92211e-06
-4.1033e-05
-1.83756e-05
-3.68762e-05
-2.71258e-05
-3.09212e-05
-3.41439e-05
-2.35142e-05
-3.82084e-05
-1.54083e-05
-3.8086e-05
-7.79916e-06
-3.2872e-05
-2.18544e-06
-2.24604e-05
-8.0247e-06
-1.77665e-06
9.5908e-06
-5.90679e-06
2.35868e-05
-1.13642e-05
3.26297e-05
-1.73772e-05
3.74038e-05
-2.3419e-05
3.87065e-05
-2.91496e-05
3.72306e-05
-3.43486e-05
3.34973e-05
-3.88565e-05
2.78676e-05
-4.25287e-05
2.05898e-05
-4.52015e-05
1.18651e-05
-4.66704e-05
1.92117e-06
-4.66837e-05
-8.90877e-06
-4.49601e-05
-2.00992e-05
-4.12432e-05
-3.08427e-05
-3.54096e-05
-3.99775e-05
-2.76382e-05
-4.59798e-05
-1.86162e-05
-4.7108e-05
-9.69131e-06
-4.17969e-05
-2.79963e-06
-2.93521e-05
-1.08243e-05
-1.91832e-06
1.15091e-05
-6.3045e-06
2.7973e-05
-1.19706e-05
3.82958e-05
-1.80625e-05
4.34957e-05
-2.40492e-05
4.46933e-05
-2.96367e-05
4.2818e-05
-3.46747e-05
3.85354e-05
-3.90818e-05
3.22747e-05
-4.27874e-05
2.42954e-05
-4.5688e-05
1.47657e-05
-4.76139e-05
3.8471e-06
-4.83074e-05
-8.21532e-06
-4.74202e-05
-2.09863e-05
-4.45503e-05
-3.37126e-05
-3.93455e-05
-4.51823e-05
-3.17094e-05
-5.36159e-05
-2.21142e-05
-5.67031e-05
-1.19404e-05
-5.19708e-05
-3.59089e-06
-3.77015e-05
-1.44152e-05
-2.10084e-06
1.361e-05
-6.75073e-06
3.26229e-05
-1.25197e-05
4.40648e-05
-1.84578e-05
4.94337e-05
-2.40567e-05
5.02923e-05
-2.91062e-05
4.78676e-05
-3.35637e-05
4.29929e-05
-3.74594e-05
3.61704e-05
-4.08297e-05
2.76656e-05
-4.36669e-05
1.7603e-05
-4.58778e-05
6.05803e-06
-4.72451e-05
-6.84804e-06
-4.73985e-05
-2.08329e-05
-4.58147e-05
-3.52965e-05
-4.18881e-05
-4.91089e-05
-3.51385e-05
-6.03656e-05
-2.562e-05
-6.62216e-05
-1.45117e-05
-6.30792e-05
-4.60425e-06
-4.7609e-05
-1.90195e-05
-2.39824e-06
1.60082e-05
-7.37838e-06
3.7603e-05
-1.31258e-05
4.98122e-05
-1.85915e-05
5.48995e-05
-2.33459e-05
5.50466e-05
-2.73238e-05
5.18454e-05
-3.06392e-05
4.63083e-05
-3.3471e-05
3.90022e-05
-3.59934e-05
3.0188e-05
-3.83276e-05
1.99373e-05
-4.0499e-05
8.22938e-06
-4.23871e-05
-4.95991e-06
-4.36692e-05
-1.95508e-05
-4.37688e-05
-3.51969e-05
-4.18562e-05
-5.10214e-05
-3.69979e-05
-6.52239e-05
-2.86011e-05
-7.46183e-05
-1.72704e-05
-7.44099e-05
-5.89259e-06
-5.89868e-05
-2.49121e-05
-2.94883e-06
1.8957e-05
-8.40018e-06
4.30544e-05
-1.39348e-05
5.53468e-05
-1.84552e-05
5.94199e-05
-2.1728e-05
5.83194e-05
-2.39306e-05
5.4048e-05
-2.53955e-05
4.77732e-05
-2.6485e-05
4.00917e-05
-2.75308e-05
3.12338e-05
-2.88009e-05
2.12074e-05
-3.04676e-05
9.896e-06
-3.25588e-05
-2.86869e-06
-3.48824e-05
-1.72272e-05
-3.6921e-05
-3.31584e-05
-3.77307e-05
-5.02117e-05
-3.59515e-05
-6.70031e-05
-3.016e-05
-8.04098e-05
-1.98939e-05
-8.4676e-05
-7.50563e-06
-7.13751e-05
-3.24177e-05
-3.99077e-06
2.29478e-05
-1.00883e-05
4.91519e-05
-1.50029e-05
6.02614e-05
-1.78025e-05
6.22195e-05
-1.8683e-05
5.91999e-05
-1.82054e-05
5.35705e-05
-1.69862e-05
4.6554e-05
-1.55884e-05
3.86938e-05
-1.44944e-05
3.01398e-05
-1.41056e-05
2.08186e-05
-1.47375e-05
1.05279e-05
-1.65898e-05
-1.01636e-06
-1.96719e-05
-1.41451e-05
-2.36635e-05
-2.91668e-05
-2.7706e-05
-4.61692e-05
-3.01995e-05
-6.45096e-05
-2.88729e-05
-8.17364e-05
-2.16963e-05
-9.18526e-05
-9.43195e-06
-8.36394e-05
-4.18496e-05
-5.86812e-06
2.88159e-05
-1.25861e-05
5.58698e-05
-1.58853e-05
6.35606e-05
-1.56162e-05
6.19504e-05
-1.28048e-05
5.63885e-05
-8.55383e-06
4.93195e-05
-3.78944e-06
4.17896e-05
7.60179e-07
3.41442e-05
4.52122e-06
2.63788e-05
7.02109e-06
1.83187e-05
7.85432e-06
9.69469e-06
6.67767e-06
1.60289e-07
3.25777e-06
-1.07252e-05
-2.4013e-06
-2.35078e-05
-9.78512e-06
-3.87854e-05
-1.74381e-05
-5.68567e-05
-2.25526e-05
-7.66218e-05
-2.1277e-05
-9.31282e-05
-1.13963e-05
-9.35201e-05
-5.3246e-05
-8.84472e-06
3.76606e-05
-1.51243e-05
6.21494e-05
-1.44577e-05
6.2894e-05
-8.86647e-06
5.63592e-05
-6.97965e-07
4.822e-05
8.38413e-06
4.02374e-05
1.72732e-05
3.29006e-05
2.5232e-05
2.61853e-05
3.17386e-05
1.98722e-05
3.63737e-05
1.36836e-05
3.87483e-05
7.32006e-06
3.84624e-05
4.46241e-07
3.51135e-05
-7.37631e-06
2.83508e-05
-1.67451e-05
1.81146e-05
-2.85491e-05
5.17606e-06
-4.39181e-05
-7.91018e-06
-6.35356e-05
-1.59123e-05
-8.51261e-05
-1.23655e-05
-9.70669e-05
-6.56115e-05
-1.21807e-05
4.98413e-05
-1.33931e-05
6.33618e-05
-3.93783e-06
5.34388e-05
9.96546e-06
4.24559e-05
2.47848e-05
3.34007e-05
3.88636e-05
2.61586e-05
5.13976e-05
2.03666e-05
6.19783e-05
1.56046e-05
7.0365e-05
1.14854e-05
7.63545e-05
7.69422e-06
7.97062e-05
3.96835e-06
8.00851e-05
6.73117e-08
7.70465e-05
-4.33775e-06
6.99752e-05
-9.6738e-06
5.81713e-05
-1.67452e-05
4.12077e-05
-2.69546e-05
2.00938e-05
-4.24216e-05
-3.50772e-07
-6.46815e-05
-9.57225e-06
-8.78454e-05
-7.51837e-05
-8.04548e-06
5.78868e-05
9.06018e-06
4.62561e-05
3.34612e-05
2.90378e-05
5.63468e-05
1.95703e-05
7.59527e-05
1.37948e-05
9.22269e-05
9.88446e-06
0.000105439
7.154e-06
0.000115885
5.15945e-06
0.00012378
3.5896e-06
0.000129232
2.24264e-06
0.000132216
9.84048e-07
0.000132579
-2.95386e-07
0.000129955
-1.71395e-06
0.000123723
-3.44164e-06
0.000112813
-5.83485e-06
9.55666e-05
-9.70844e-06
7.01409e-05
-1.69959e-05
3.69215e-05
-3.14621e-05
5.45073e-06
-5.63747e-05
-6.9733e-05
5.78868e-05
0.000104143
0.000133181
0.000152751
0.000166546
0.00017643
0.000183584
0.000188744
0.000192333
0.000194576
0.00019556
0.000195265
0.000193551
0.000190109
0.000184274
0.000174566
0.00015757
0.000126108
6.9733e-05
)
;

boundaryField
{
    movingWall
    {
        type            calculated;
        value           uniform 0;
    }
    fixedWalls
    {
        type            calculated;
        value           uniform 0;
    }
    frontAndBack
    {
        type            empty;
        value           nonuniform List<scalar> 0();
    }
}


// ************************************************************************* //
