/*--------------------------------*- C++ -*----------------------------------*\
  =========                 |
  \\      /  F ield         | OpenFOAM: The Open Source CFD Toolbox
   \\    /   O peration     | Website:  https://openfoam.org
    \\  /    A nd           | Version:  8
     \\/     M anipulation  |
\*---------------------------------------------------------------------------*/
FoamFile
{
    version     2.0;
    format      ascii;
    class       volScalarField;
    location    "0.1";
    object      p;
}
// * * * * * * * * * * * * * * * * * * * * * * * * * * * * * * * * * * * * * //

dimensions      [0 2 -2 0 0 0 0];

internalField   nonuniform List<scalar> 
400
(
7.02054e-08
-0.0126091
-0.0277803
-0.0391836
-0.0432821
-0.0385446
-0.0248397
-0.00299752
0.0254653
0.0584885
0.0935647
0.127858
0.15839
0.182327
0.197365
0.202193
0.197009
0.183999
0.167714
0.155144
0.0125171
-0.00047355
-0.0123173
-0.0200693
-0.0221358
-0.0174603
-0.00587288
0.0120575
0.0352078
0.0619929
0.0904412
0.118302
0.14321
0.162935
0.175689
0.180489
0.177533
0.168394
0.155576
0.14273
0.028625
0.0106633
-0.00208551
-0.00913016
-0.0107557
-0.00646291
0.003769
0.0194258
0.0395881
0.0629612
0.0879007
0.112484
0.134644
0.152383
0.164041
0.168607
0.166066
0.157422
0.143421
0.125524
0.0427052
0.0180049
0.00225128
-0.00573626
-0.0078331
-0.00404216
0.00545045
0.0200817
0.0390203
0.0611337
0.0849542
0.108702
0.130384
0.147976
0.159674
0.164202
0.161205
0.151199
0.133559
0.108489
0.0508827
0.0192167
-8.59576e-05
-0.00950093
-0.012278
-0.00884513
0.000420106
0.0148893
0.0337821
0.0560751
0.080406
0.105044
0.127949
0.146922
0.15985
0.165032
0.161671
0.149814
0.127677
0.0946703
0.0502174
0.0116863
-0.0112444
-0.0221375
-0.0254735
-0.0220444
-0.0123896
0.0028071
0.0228094
0.0466819
0.0731311
0.10042
0.126376
0.14851
0.164246
0.171292
0.168269
0.154696
0.127676
0.0860796
0.038173
-0.00710273
-0.0335268
-0.0456707
-0.0491979
-0.0452384
-0.0344691
-0.0176078
0.00467014
0.0315288
0.0617463
0.0935643
0.124632
0.152079
0.172715
0.183456
0.18213
0.167543
0.135528
0.0844653
0.0122395
-0.039712
-0.0693356
-0.0822489
-0.0853598
-0.0801581
-0.0674502
-0.0479608
-0.0222632
0.00895642
0.0446
0.0829272
0.121418
0.156762
0.185017
0.202061
0.204615
0.190436
0.153646
0.0919692
-0.0303193
-0.0889613
-0.121324
-0.13423
-0.136024
-0.128643
-0.113041
-0.0899211
-0.0596882
-0.0227866
0.0199172
0.0668086
0.115276
0.161582
0.200914
0.22784
0.237546
0.226181
0.185367
0.111725
-0.0926658
-0.158115
-0.192478
-0.204134
-0.203255
-0.192402
-0.17273
-0.144889
-0.109026
-0.0652074
-0.0138965
0.043606
0.104774
0.165553
0.220228
0.261789
0.283357
0.278648
0.235494
0.148523
-0.178673
-0.251146
-0.286211
-0.29453
-0.288833
-0.272607
-0.247293
-0.213454
-0.170858
-0.119004
-0.0577189
0.0122854
0.0888739
0.167942
0.242998
0.305292
0.345298
0.353181
0.311002
0.209718
-0.293509
-0.373198
-0.406493
-0.407844
-0.393827
-0.36931
-0.33612
-0.294663
-0.244149
-0.183279
-0.110935
-0.0268898
0.0675712
0.168767
0.269826
0.360349
0.427701
0.457134
0.422039
0.306651
-0.444951
-0.531448
-0.558039
-0.546024
-0.517956
-0.480658
-0.436362
-0.385135
-0.325368
-0.25465
-0.170582
-0.0714878
0.0427053
0.169476
0.302359
0.429902
0.5363
0.600515
0.583385
0.457098
-0.646366
-0.736645
-0.746417
-0.709858
-0.658614
-0.60187
-0.541976
-0.478221
-0.40772
-0.326526
-0.230538
-0.116202
0.0186249
0.173515
0.343675
0.517979
0.678326
0.796605
0.816653
0.689907
-0.923297
-1.00561
-0.977574
-0.897451
-0.809263
-0.723918
-0.642806
-0.563455
-0.480917
-0.389114
-0.281784
-0.153024
0.00203342
0.186128
0.397881
0.628971
0.861621
1.0618
1.15311
1.05348
-1.32604
-1.36427
-1.25612
-1.10172
-0.957412
-0.832349
-0.724271
-0.626971
-0.532169
-0.430772
-0.31392
-0.172953
0.000264205
0.212686
0.468434
0.765735
1.09239
1.41353
1.63508
1.62762
-1.95372
-1.84952
-1.58239
-1.30899
-1.08453
-0.908364
-0.769503
-0.654475
-0.549515
-0.441717
-0.319087
-0.169995
0.0173052
0.254903
0.554741
0.926585
1.37188
1.86564
2.31497
2.54226
-3.0412
-2.50641
-1.93271
-1.48571
-1.15946
-0.926875
-0.76047
-0.634134
-0.526163
-0.41906
-0.297788
-0.148008
0.0454393
0.300282
0.638609
1.08779
1.67392
2.40487
3.26046
4.07391
-5.23446
-3.35133
-2.15275
-1.49444
-1.0863
-0.826165
-0.660444
-0.546849
-0.455526
-0.365776
-0.261344
-0.127024
0.0536457
0.302069
0.649646
1.14496
1.85515
2.88332
4.51418
6.8994
-9.148
-4.17322
-1.93654
-1.13136
-0.751643
-0.548605
-0.443339
-0.3845
-0.340359
-0.291902
-0.225494
-0.129
0.0115423
0.214897
0.512395
0.963311
1.68302
2.95794
5.74985
11.2849
)
;

boundaryField
{
    movingWall
    {
        type            zeroGradient;
    }
    fixedWalls
    {
        type            zeroGradient;
    }
    frontAndBack
    {
        type            empty;
    }
}


// ************************************************************************* //
