/*--------------------------------*- C++ -*----------------------------------*\
  =========                 |
  \\      /  F ield         | OpenFOAM: The Open Source CFD Toolbox
   \\    /   O peration     | Website:  https://openfoam.org
    \\  /    A nd           | Version:  8
     \\/     M anipulation  |
\*---------------------------------------------------------------------------*/
FoamFile
{
    version     2.0;
    format      ascii;
    class       surfaceScalarField;
    location    "0.1";
    object      phi;
}
// * * * * * * * * * * * * * * * * * * * * * * * * * * * * * * * * * * * * * //

dimensions      [0 3 -1 0 0 0 0];

internalField   nonuniform List<scalar> 
760
(
2.93196e-08
-2.93182e-08
-5.19026e-08
8.12212e-08
-2.51606e-07
1.99704e-07
-5.33155e-07
2.81549e-07
-8.54743e-07
3.2159e-07
-1.17788e-06
3.23141e-07
-1.46968e-06
2.91791e-07
-1.70327e-06
2.33593e-07
-1.85779e-06
1.54524e-07
-1.91856e-06
6.07709e-08
-1.87787e-06
-4.06948e-08
-1.73622e-06
-1.41647e-07
-1.50374e-06
-2.32479e-07
-1.20119e-06
-3.02556e-07
-8.60041e-07
-3.41147e-07
-5.21064e-07
-3.38978e-07
-2.30589e-07
-2.90474e-07
-3.40835e-08
-1.96506e-07
3.61989e-08
-7.0283e-08
3.61987e-08
-7.72772e-08
4.7957e-08
-3.97334e-07
4.0128e-07
-9.46044e-07
7.4841e-07
-1.65594e-06
9.91447e-07
-2.44353e-06
1.10918e-06
-3.22573e-06
1.10534e-06
-3.9277e-06
9.9376e-07
-4.48653e-06
7.92426e-07
-4.85305e-06
5.21051e-07
-4.99342e-06
2.01139e-07
-4.89112e-06
-1.42996e-07
-4.54942e-06
-4.83347e-07
-3.99369e-06
-7.88209e-07
-3.27265e-06
-1.0236e-06
-2.45736e-06
-1.15643e-06
-1.63673e-06
-1.15961e-06
-9.08146e-07
-1.01906e-06
-3.62431e-07
-7.42221e-07
-6.15731e-08
-3.71141e-07
-2.53734e-08
-2.04274e-07
2.52231e-07
-7.81758e-07
9.78764e-07
-1.66252e-06
1.62917e-06
-2.74537e-06
2.0743e-06
-3.91636e-06
2.28018e-06
-5.06319e-06
2.25216e-06
-6.08398e-06
2.01455e-06
-6.89243e-06
1.60088e-06
-7.42089e-06
1.04951e-06
-7.62294e-06
4.03193e-07
-7.47623e-06
-2.8971e-07
-6.98554e-06
-9.74041e-07
-6.18559e-06
-1.58816e-06
-5.14244e-06
-2.06675e-06
-3.95198e-06
-2.3469e-06
-2.73397e-06
-2.37761e-06
-1.62033e-06
-2.1327e-06
-7.37227e-07
-1.62533e-06
-1.82071e-07
-9.26296e-07
-2.07444e-07
-3.20443e-07
5.72672e-07
-1.14795e-06
1.80628e-06
-2.34808e-06
2.8293e-06
-3.77792e-06
3.50414e-06
-5.29351e-06
3.79576e-06
-6.75905e-06
3.7177e-06
-8.05357e-06
3.30908e-06
-9.07524e-06
2.62254e-06
-9.74421e-06
1.71848e-06
-1.00053e-05
6.64303e-07
-9.83113e-06
-4.63896e-07
-9.22547e-06
-1.57971e-06
-8.22684e-06
-2.58678e-06
-6.91078e-06
-3.38282e-06
-5.38921e-06
-3.86847e-06
-3.80525e-06
-3.96157e-06
-2.32167e-06
-3.61628e-06
-1.10301e-06
-2.84399e-06
-2.93745e-07
-1.73555e-06
-5.01189e-07
-4.26094e-07
9.98766e-07
-1.49225e-06
2.87244e-06
-3.00008e-06
4.33713e-06
-4.76115e-06
5.2652e-06
-6.60035e-06
5.63497e-06
-8.3607e-06
5.47805e-06
-9.90654e-06
4.85492e-06
-1.11254e-05
3.84142e-06
-1.19294e-05
2.52242e-06
-1.22566e-05
9.91535e-07
-1.20742e-05
-6.46292e-07
-1.13819e-05
-2.27196e-06
-1.02169e-05
-3.75187e-06
-8.65739e-06
-4.94228e-06
-6.82549e-06
-5.70036e-06
-4.88409e-06
-5.90297e-06
-3.02783e-06
-5.47255e-06
-1.46597e-06
-4.40584e-06
-3.99734e-07
-2.80179e-06
-9.00924e-07
-5.25616e-07
1.52438e-06
-1.82189e-06
4.16871e-06
-3.62816e-06
6.1434e-06
-5.70888e-06
7.34592e-06
-7.85731e-06
7.7834e-06
-9.89692e-06
7.51766e-06
-1.16807e-05
6.63875e-06
-1.30896e-05
5.2503e-06
-1.40307e-05
3.4635e-06
-1.44371e-05
1.39793e-06
-1.42696e-05
-8.13792e-07
-1.35206e-05
-3.021e-06
-1.22199e-05
-5.05249e-06
-1.04425e-05
-6.71975e-06
-8.31408e-06
-7.82875e-06
-6.01439e-06
-8.20266e-06
-3.77162e-06
-7.71533e-06
-1.84704e-06
-6.33042e-06
-5.09045e-07
-4.13979e-06
-1.40997e-06
-6.23197e-07
2.14758e-06
-2.1453e-06
5.69081e-06
-4.24257e-06
8.24067e-06
-6.63107e-06
9.73442e-06
-9.07273e-06
1.02251e-05
-1.1374e-05
9.81893e-06
-1.33806e-05
8.64538e-06
-1.49712e-05
6.84091e-06
-1.60518e-05
4.54409e-06
-1.65525e-05
1.89859e-06
-1.64272e-05
-9.39065e-07
-1.56576e-05
-3.79062e-06
-1.42604e-05
-6.44972e-06
-1.22985e-05
-8.68165e-06
-9.89358e-06
-1.02336e-05
-7.23635e-06
-1.08599e-05
-4.58848e-06
-1.03632e-05
-2.27051e-06
-8.64839e-06
-6.31497e-07
-5.7788e-06
-2.04146e-06
-7.22326e-07
2.8699e-06
-2.46963e-06
7.43811e-06
-4.85019e-06
1.06212e-05
-7.52926e-06
1.24135e-05
-1.02387e-05
1.29345e-05
-1.27721e-05
1.23523e-05
-1.49739e-05
1.08472e-05
-1.6727e-05
8.594e-06
-1.79417e-05
5.75881e-06
-1.85487e-05
2.50556e-06
-1.8496e-05
-9.91813e-07
-1.77515e-05
-4.53509e-06
-1.63121e-05
-7.8891e-06
-1.42187e-05
-1.07751e-05
-1.15765e-05
-1.28758e-05
-8.57656e-06
-1.38599e-05
-5.50919e-06
-1.34306e-05
-2.7601e-06
-1.13975e-05
-7.76919e-07
-7.76198e-06
-2.81838e-06
-8.26299e-07
3.6962e-06
-2.80113e-06
9.41294e-06
-5.45407e-06
1.32742e-05
-8.39521e-06
1.53546e-05
-1.13286e-05
1.58679e-05
-1.40421e-05
1.50658e-05
-1.63879e-05
1.3193e-05
-1.82624e-05
1.04685e-05
-1.95887e-05
7.08508e-06
-2.03041e-05
3.22098e-06
-2.03537e-05
-9.42265e-07
-1.96904e-05
-5.19831e-06
-1.82847e-05
-9.29487e-06
-1.61427e-05
-1.2917e-05
-1.33362e-05
-1.56823e-05
-1.00379e-05
-1.71582e-05
-6.5542e-06
-1.69143e-05
-3.33727e-06
-1.46144e-05
-9.55305e-07
-1.01439e-05
-3.77369e-06
-9.39732e-07
4.63594e-06
-3.14776e-06
1.1621e-05
-6.0556e-06
1.6182e-05
-9.21135e-06
1.85104e-05
-1.2296e-05
1.89525e-05
-1.51025e-05
1.78724e-05
-1.75045e-05
1.55951e-05
-1.94253e-05
1.23893e-05
-2.08124e-05
8.47223e-06
-2.16194e-05
4.02795e-06
-2.17942e-05
-7.67434e-07
-2.12765e-05
-5.71603e-06
-2.00047e-05
-1.05667e-05
-1.79371e-05
-1.49847e-05
-1.50892e-05
-1.85302e-05
-1.15871e-05
-2.06602e-05
-7.72735e-06
-2.0774e-05
-4.02026e-06
-1.83215e-05
-1.17773e-06
-1.29865e-05
-4.95142e-06
-1.07127e-06
5.70721e-06
-3.52372e-06
1.40734e-05
-6.65788e-06
1.93162e-05
-9.95121e-06
2.18037e-05
-1.30711e-05
2.20724e-05
-1.58338e-05
2.0635e-05
-1.81535e-05
1.79148e-05
-1.99983e-05
1.4234e-05
-2.13555e-05
9.82949e-06
-2.22074e-05
4.87987e-06
-2.25147e-05
-4.60158e-07
-2.22089e-05
-6.02186e-06
-2.11952e-05
-1.15804e-05
-1.93718e-05
-1.68081e-05
-1.66722e-05
-2.12298e-05
-1.31363e-05
-2.41961e-05
-9.00645e-06
-2.49038e-05
-4.82268e-06
-2.25053e-05
-1.458e-06
-1.63512e-05
-6.40943e-06
-1.2381e-06
6.9453e-06
-3.95545e-06
1.67908e-05
-7.26809e-06
2.26288e-05
-1.05758e-05
2.51115e-05
-1.35529e-05
2.50495e-05
-1.60673e-05
2.31494e-05
-1.81009e-05
1.99484e-05
-1.96884e-05
1.58216e-05
-2.08746e-05
1.10157e-05
-2.16849e-05
5.69015e-06
-2.21052e-05
-3.98763e-08
-2.20694e-05
-6.05759e-06
-2.14547e-05
-1.21951e-05
-2.00932e-05
-1.81695e-05
-1.78121e-05
-2.35109e-05
-1.45167e-05
-2.74916e-05
-1.03268e-05
-2.90937e-05
-5.75001e-06
-2.7082e-05
-1.8153e-06
-2.02859e-05
-8.22473e-06
-1.47324e-06
8.41854e-06
-4.48781e-06
1.98054e-05
-7.89332e-06
2.60343e-05
-1.1018e-05
2.82362e-05
-1.35856e-05
2.76171e-05
-1.55607e-05
2.51245e-05
-1.70277e-05
2.14154e-05
-1.81119e-05
1.69057e-05
-1.89314e-05
1.18352e-05
-1.95679e-05
6.32661e-06
-2.0046e-05
4.38269e-07
-2.03163e-05
-5.78728e-06
-2.02423e-05
-1.22691e-05
-1.95973e-05
-1.88145e-05
-1.80888e-05
-2.50195e-05
-1.54385e-05
-3.01419e-05
-1.15519e-05
-3.29803e-05
-6.79014e-06
-3.18438e-05
-2.2781e-06
-2.47979e-05
-1.05028e-05
-1.83675e-06
1.02553e-05
-5.18422e-06
2.31528e-05
-8.5158e-06
2.93659e-05
-1.11367e-05
3.08571e-05
-1.2904e-05
2.93844e-05
-1.39456e-05
2.61661e-05
-1.44884e-05
2.19581e-05
-1.47673e-05
1.71846e-05
-1.49816e-05
1.20495e-05
-1.52738e-05
6.61885e-06
-1.57157e-05
8.80185e-07
-1.62914e-05
-5.21162e-06
-1.68752e-05
-1.16854e-05
-1.7208e-05
-1.84817e-05
-1.68906e-05
-2.53369e-05
-1.54319e-05
-3.16007e-05
-1.24199e-05
-3.59922e-05
-7.88835e-06
-3.63754e-05
-2.88772e-06
-2.97986e-05
-1.33905e-05
-2.42751e-06
1.26828e-05
-6.1e-06
2.68253e-05
-9.01257e-06
3.22785e-05
-1.06048e-05
3.24493e-05
-1.10181e-05
2.97978e-05
-1.06293e-05
2.57773e-05
-9.8396e-06
2.11684e-05
-8.9939e-06
1.6339e-05
-8.36012e-06
1.14157e-05
-8.12891e-06
6.38764e-06
-8.41549e-06
1.16676e-06
-9.24937e-06
-4.37775e-06
-1.05478e-05
-1.03869e-05
-1.2071e-05
-1.69585e-05
-1.33688e-05
-2.40391e-05
-1.37606e-05
-3.12088e-05
-1.24422e-05
-3.73106e-05
-8.87973e-06
-3.99379e-05
-3.69006e-06
-3.49882e-05
-1.70806e-05
-3.36908e-06
1.60519e-05
-7.15825e-06
3.06145e-05
-8.93574e-06
3.4056e-05
-8.66278e-06
3.21763e-05
-6.99496e-06
2.81299e-05
-4.62988e-06
2.34122e-05
-2.13295e-06
1.86715e-05
8.35396e-08
1.41225e-05
1.73195e-06
9.7673e-06
2.61165e-06
5.50794e-06
2.58752e-06
1.19089e-06
1.58536e-06
-3.37559e-06
-3.85916e-07
-8.4156e-06
-3.17677e-06
-1.41677e-05
-6.39806e-06
-2.08178e-05
-9.29895e-06
-2.83079e-05
-1.0714e-05
-3.58956e-05
-9.31305e-06
-4.13388e-05
-4.67161e-06
-3.96297e-05
-2.17522e-05
-4.67842e-06
2.07303e-05
-7.73377e-06
3.36698e-05
-6.97539e-06
3.32976e-05
-3.63506e-06
2.8836e-05
8.97116e-07
2.35978e-05
5.6462e-06
1.86631e-05
1e-05
1.43177e-05
1.35951e-05
1.05274e-05
1.62143e-05
7.14805e-06
1.77155e-05
4.00677e-06
1.79867e-05
9.19658e-07
1.69284e-05
-2.31723e-06
1.44607e-05
-5.9479e-06
1.05722e-05
-1.02792e-05
5.43657e-06
-1.56822e-05
-3.71789e-07
-2.24996e-05
-5.58393e-06
-3.06835e-05
-8.05605e-06
-3.88666e-05
-5.54328e-06
-4.21424e-05
-2.72955e-05
-5.75848e-06
2.64888e-05
-5.46554e-06
3.33769e-05
2.13847e-07
2.76182e-05
7.89211e-06
2.11577e-05
1.56414e-05
1.58484e-05
2.25867e-05
1.17178e-05
2.83656e-05
8.53885e-06
3.28544e-05
6.03862e-06
3.60234e-05
3.97898e-06
3.78584e-05
2.17177e-06
3.83183e-05
4.59806e-07
3.73129e-05
-1.3118e-06
3.46911e-05
-3.32611e-06
3.02535e-05
-5.84163e-06
2.38225e-05
-9.25115e-06
1.54525e-05
-1.41297e-05
5.91169e-06
-2.11426e-05
-2.46974e-06
-3.04852e-05
-5.19735e-06
-3.94148e-05
-3.24928e-05
-2.49747e-06
2.89862e-05
7.28127e-06
2.35982e-05
2.02662e-05
1.46332e-05
3.20159e-05
9.40804e-06
4.16197e-05
6.24468e-06
4.91371e-05
4.20038e-06
5.48357e-05
2.84024e-06
5.89824e-05
1.89197e-06
6.17806e-05
1.18071e-06
6.33552e-05
5.97203e-07
6.37468e-05
6.82554e-08
6.29068e-05
-4.71807e-07
6.06728e-05
-1.09218e-06
5.67372e-05
-1.90601e-06
5.06035e-05
-3.11748e-06
4.16011e-05
-5.12726e-06
2.91726e-05
-8.71407e-06
1.3946e-05
-1.52587e-05
6.50074e-07
-2.61188e-05
-3.18428e-05
2.89862e-05
5.25844e-05
6.72176e-05
7.66257e-05
8.28703e-05
8.70707e-05
8.9911e-05
9.18029e-05
9.29836e-05
9.35808e-05
9.36491e-05
9.31773e-05
9.20851e-05
9.01791e-05
8.70616e-05
8.19344e-05
7.32203e-05
5.79616e-05
3.18428e-05
)
;

boundaryField
{
    movingWall
    {
        type            calculated;
        value           uniform 0;
    }
    fixedWalls
    {
        type            calculated;
        value           uniform 0;
    }
    frontAndBack
    {
        type            empty;
        value           nonuniform List<scalar> 0();
    }
}


// ************************************************************************* //
