/*--------------------------------*- C++ -*----------------------------------*\
  =========                 |
  \\      /  F ield         | OpenFOAM: The Open Source CFD Toolbox
   \\    /   O peration     | Website:  https://openfoam.org
    \\  /    A nd           | Version:  8
     \\/     M anipulation  |
\*---------------------------------------------------------------------------*/
FoamFile
{
    version     2.0;
    format      ascii;
    class       volScalarField;
    location    "0.4";
    object      p;
}
// * * * * * * * * * * * * * * * * * * * * * * * * * * * * * * * * * * * * * //

dimensions      [0 2 -2 0 0 0 0];

internalField   nonuniform List<scalar> 
400
(
6.87844e-06
-0.0175044
-0.0384549
-0.0542274
-0.0600946
-0.0540325
-0.0358378
-0.00652651
0.031993
0.0770472
0.125263
0.17269
0.215063
0.248248
0.268858
0.274998
0.26703
0.248243
0.225264
0.20793
0.0173969
-0.00070151
-0.0170681
-0.0277973
-0.0308543
-0.02486
-0.00955958
0.0143748
0.0455556
0.0819482
0.120916
0.159334
0.193818
0.221102
0.238548
0.244716
0.239942
0.226611
0.208489
0.190819
0.039577
0.0145858
-0.00297323
-0.0126651
-0.0151028
-0.00968272
0.0036537
0.0243264
0.0512524
0.082822
0.116871
0.150739
0.181454
0.206059
0.222064
0.227959
0.223763
0.211068
0.191245
0.166587
0.0585719
0.024338
0.00275713
-0.00815519
-0.0112734
-0.00669457
0.00538193
0.024358
0.04933
0.0789669
0.111388
0.144144
0.174347
0.198957
0.215214
0.221171
0.216334
0.201624
0.17659
0.141907
0.0687976
0.0251519
-0.00113312
-0.0139517
-0.0181278
-0.0143384
-0.00299578
0.0152893
0.0397697
0.0693448
0.102339
0.136397
0.168544
0.195433
0.213767
0.220896
0.215629
0.198221
0.166694
0.120785
0.0659656
0.013246
-0.0177846
-0.0326319
-0.0378383
-0.0345534
-0.023334
-0.00476055
0.0205967
0.0518684
0.0875618
0.12536
0.162092
0.193927
0.216783
0.227014
0.222471
0.202612
0.163976
0.105742
0.0464113
-0.014962
-0.050492
-0.067154
-0.0730878
-0.0698495
-0.0580789
-0.0382646
-0.0107423
0.0239037
0.0644061
0.1085
0.152782
0.192801
0.223443
0.239706
0.23809
0.216921
0.17097
0.0989437
0.00665556
-0.0629789
-0.102564
-0.120539
-0.126648
-0.12285
-0.109828
-0.0879055
-0.0570894
-0.0175646
0.0297513
0.0827556
0.137863
0.189947
0.232628
0.259117
0.263993
0.243829
0.190892
0.103175
-0.0568608
-0.134457
-0.177466
-0.195927
-0.201355
-0.196194
-0.181163
-0.156351
-0.121305
-0.0756351
-0.0196945
0.0447997
0.114264
0.182961
0.243074
0.285552
0.302279
0.287077
0.228375
0.122767
-0.147961
-0.233374
-0.27887
-0.296447
-0.299816
-0.292107
-0.274125
-0.245656
-0.205629
-0.152842
-0.0867802
-0.0084214
0.0790069
0.169404
0.253517
0.319594
0.355881
0.35198
0.290303
0.164644
-0.271025
-0.364319
-0.41071
-0.42499
-0.423933
-0.411741
-0.389403
-0.35634
-0.310677
-0.250108
-0.172864
-0.0787031
0.0300534
0.147466
0.263143
0.362416
0.428912
0.446053
0.386905
0.239773
-0.43168
-0.533057
-0.57732
-0.583896
-0.574258
-0.554282
-0.525276
-0.486201
-0.434141
-0.365348
-0.276353
-0.165111
-0.0323002
0.117155
0.272494
0.416424
0.52724
0.579878
0.533287
0.365399
-0.638459
-0.747648
-0.783663
-0.774479
-0.749097
-0.715846
-0.676396
-0.629018
-0.569411
-0.491986
-0.391097
-0.262274
-0.103687
0.0819298
0.284838
0.486285
0.659334
0.768246
0.751671
0.56884
-0.906678
-1.02051
-1.03552
-0.996189
-0.943296
-0.888212
-0.832598
-0.773472
-0.704572
-0.617951
-0.505304
-0.359147
-0.174268
0.0501733
0.307497
0.579927
0.837044
1.03143
1.07474
0.894457
-1.2671
-1.37184
-1.33904
-1.24478
-1.14635
-1.05734
-0.977973
-0.902735
-0.822406
-0.725972
-0.601969
-0.439415
-0.228977
0.0351417
0.351842
0.708281
1.07509
1.39543
1.54972
1.41579
-1.783
-1.83421
-1.69874
-1.50929
-1.34012
-1.20225
-1.09091
-0.995562
-0.902357
-0.796215
-0.662006
-0.484899
-0.250922
0.0518514
0.430602
0.882816
1.38839
1.88942
2.23997
2.25086
-2.58391
-2.45617
-2.1144
-1.77088
-1.49928
-1.29697
-1.14757
-1.03095
-0.926057
-0.812577
-0.671208
-0.483098
-0.229329
0.109159
0.550658
1.1096
1.78671
2.5393
3.22358
3.58597
-3.98315
-3.29868
-2.55607
-1.98645
-1.58335
-1.3085
-1.12389
-0.992955
-0.884134
-0.771006
-0.630209
-0.43925
-0.17455
0.19075
0.689087
1.35983
2.23986
3.33485
4.60436
5.81177
-6.85405
-4.38208
-2.81603
-1.97205
-1.46358
-1.1531
-0.969605
-0.855527
-0.768411
-0.677501
-0.557735
-0.385362
-0.134864
0.225947
0.742649
1.48472
2.54914
4.07807
6.44998
9.85846
-12.1053
-5.43303
-2.47534
-1.44893
-0.983859
-0.749886
-0.6473
-0.60721
-0.5842
-0.549461
-0.48122
-0.359392
-0.161385
0.141857
0.596178
1.28619
2.37953
4.27834
8.27202
15.9887
)
;

boundaryField
{
    movingWall
    {
        type            zeroGradient;
    }
    fixedWalls
    {
        type            zeroGradient;
    }
    frontAndBack
    {
        type            empty;
    }
}


// ************************************************************************* //
