/*--------------------------------*- C++ -*----------------------------------*\
  =========                 |
  \\      /  F ield         | OpenFOAM: The Open Source CFD Toolbox
   \\    /   O peration     | Website:  https://openfoam.org
    \\  /    A nd           | Version:  8
     \\/     M anipulation  |
\*---------------------------------------------------------------------------*/
FoamFile
{
    version     2.0;
    format      ascii;
    class       volVectorField;
    location    "0.4";
    object      U;
}
// * * * * * * * * * * * * * * * * * * * * * * * * * * * * * * * * * * * * * //

dimensions      [0 1 -1 0 0 0 0];

internalField   nonuniform List<vector> 
400
(
(0.000730005 -0.000726487 0)
(0.000311422 0.000374032 0)
(-0.00370058 0.00169845 0)
(-0.0105567 0.00260823 0)
(-0.0190806 0.00305886 0)
(-0.028157 0.00311336 0)
(-0.0368163 0.00284422 0)
(-0.0442479 0.00231376 0)
(-0.0497906 0.00157336 0)
(-0.0529298 0.000673199 0)
(-0.0533156 -0.00032573 0)
(-0.0508048 -0.00134252 0)
(-0.0455136 -0.00227308 0)
(-0.0378654 -0.00299467 0)
(-0.0286151 -0.00337847 0)
(-0.0188277 -0.00331057 0)
(-0.00979344 -0.00272066 0)
(-0.00286307 -0.00161744 0)
(0.000814435 -0.000178934 0)
(0.000859417 0.00083602 0)
(-0.000309102 -0.000385326 0)
(-0.00508946 0.00510132 0)
(-0.017444 0.0108673 0)
(-0.035417 0.014912 0)
(-0.0566388 0.0169115 0)
(-0.0788128 0.0169896 0)
(-0.0997818 0.0153964 0)
(-0.117654 0.0124071 0)
(-0.130865 0.00829816 0)
(-0.138218 0.00336967 0)
(-0.138938 -0.00201906 0)
(-0.132762 -0.00742233 0)
(-0.120031 -0.0123046 0)
(-0.101771 -0.0160697 0)
(-0.0797074 -0.0181266 0)
(-0.0561887 -0.0179921 0)
(-0.0339594 -0.0154256 0)
(-0.0157721 -0.0105854 0)
(-0.00400091 -0.00430493 0)
(8.48002e-06 0.000917647 0)
(-0.00170834 0.00358936 0)
(-0.0115165 0.0175905 0)
(-0.0322859 0.0307008 0)
(-0.0603319 0.0397963 0)
(-0.0922466 0.044148 0)
(-0.124972 0.0438952 0)
(-0.155593 0.039526 0)
(-0.181517 0.0316649 0)
(-0.200592 0.0210049 0)
(-0.211171 0.00833118 0)
(-0.212204 -0.00542178 0)
(-0.203345 -0.0191278 0)
(-0.185068 -0.0314752 0)
(-0.158762 -0.0410423 0)
(-0.126748 -0.0464558 0)
(-0.0921814 -0.0466298 0)
(-0.0587481 -0.041073 0)
(-0.0301785 -0.0302204 0)
(-0.0100155 -0.0158643 0)
(-0.00123526 -0.0022803 0)
(-0.00295248 0.01103 0)
(-0.0175516 0.0373083 0)
(-0.0464629 0.0597596 0)
(-0.0839868 0.0748191 0)
(-0.125599 0.0816057 0)
(-0.167598 0.0803914 0)
(-0.206527 0.0719863 0)
(-0.239326 0.0574521 0)
(-0.263454 0.038003 0)
(-0.276966 0.015034 0)
(-0.278594 -0.00980165 0)
(-0.267879 -0.0345349 0)
(-0.2453 -0.0568957 0)
(-0.212399 -0.0744384 0)
(-0.171834 -0.0848002 0)
(-0.127317 -0.0860968 0)
(-0.0833039 -0.077423 0)
(-0.0444923 -0.0593717 0)
(-0.0158278 -0.034568 0)
(-0.00234287 -0.0086903 0)
(-0.00403468 0.0215544 0)
(-0.0230746 0.0637233 0)
(-0.0597267 0.0973093 0)
(-0.106236 0.118939 0)
(-0.156915 0.127979 0)
(-0.207457 0.125067 0)
(-0.25398 0.111475 0)
(-0.2931 0.0887876 0)
(-0.322026 0.0588016 0)
(-0.338593 0.0235719 0)
(-0.341335 -0.0144792 0)
(-0.329612 -0.0524761 0)
(-0.303763 -0.0870976 0)
(-0.265287 -0.114734 0)
(-0.216971 -0.131834 0)
(-0.162922 -0.135457 0)
(-0.10833 -0.12399 0)
(-0.0589863 -0.0978801 0)
(-0.0215284 -0.0602996 0)
(-0.00334402 -0.0180652 0)
(-0.00501225 0.0348776 0)
(-0.0282031 0.0964617 0)
(-0.0721965 0.142989 0)
(-0.127233 0.171772 0)
(-0.186462 0.182842 0)
(-0.245012 0.177504 0)
(-0.29866 0.157674 0)
(-0.343818 0.125557 0)
(-0.377546 0.0835682 0)
(-0.397525 0.0344203 0)
(-0.402087 -0.0187134 0)
(-0.390331 -0.072059 0)
(-0.362304 -0.121208 0)
(-0.319249 -0.161267 0)
(-0.263862 -0.187264 0)
(-0.200487 -0.194847 0)
(-0.135013 -0.181244 0)
(-0.074481 -0.146304 0)
(-0.0275578 -0.0933922 0)
(-0.00436605 -0.0303864 0)
(-0.0059353 0.0508143 0)
(-0.0330715 0.135193 0)
(-0.0840406 0.196405 0)
(-0.147121 0.232872 0)
(-0.214329 0.245726 0)
(-0.280287 0.237273 0)
(-0.34054 0.21029 0)
(-0.391419 0.167705 0)
(-0.429953 0.112565 0)
(-0.453746 0.0481886 0)
(-0.460944 -0.02159 0)
(-0.450313 -0.0921842 0)
(-0.421449 -0.158131 0)
(-0.3751 -0.213174 0)
(-0.313595 -0.250671 0)
(-0.241263 -0.264405 0)
(-0.164577 -0.249831 0)
(-0.0919367 -0.205535 0)
(-0.0344411 -0.134596 0)
(-0.00555022 -0.0459319 0)
(-0.00684302 0.0692582 0)
(-0.0377941 0.179642 0)
(-0.095391 0.257121 0)
(-0.16593 0.301657 0)
(-0.240323 0.315954 0)
(-0.312785 0.303706 0)
(-0.378782 0.268795 0)
(-0.434735 0.214985 0)
(-0.477804 0.14594 0)
(-0.505643 0.0654791 0)
(-0.516268 -0.0220645 0)
(-0.508089 -0.111472 0)
(-0.480102 -0.196359 0)
(-0.432295 -0.26911 0)
(-0.366257 -0.321186 0)
(-0.285906 -0.343988 0)
(-0.198 -0.330385 0)
(-0.112276 -0.276752 0)
(-0.042722 -0.185115 0)
(-0.00704442 -0.0652879 0)
(-0.00777435 0.090167 0)
(-0.0424866 0.229586 0)
(-0.106358 0.324635 0)
(-0.183571 0.377317 0)
(-0.263952 0.392487 0)
(-0.341461 0.375685 0)
(-0.4117 0.332185 0)
(-0.471428 0.2667 0)
(-0.518173 0.18348 0)
(-0.549839 0.086692 0)
(-0.564457 -0.0190787 0)
(-0.560118 -0.128271 0)
(-0.53513 -0.233852 0)
(-0.488447 -0.326993 0)
(-0.420456 -0.397146 0)
(-0.334066 -0.432803 0)
(-0.235736 -0.423243 0)
(-0.136262 -0.361268 0)
(-0.0529498 -0.24657 0)
(-0.00901345 -0.0893524 0)
(-0.00879344 0.113577 0)
(-0.0473376 0.284861 0)
(-0.117123 0.398314 0)
(-0.199916 0.458669 0)
(-0.284471 0.473693 0)
(-0.364718 0.451348 0)
(-0.436722 0.398644 0)
(-0.497921 0.321365 0)
(-0.54654 0.224297 0)
(-0.581032 0.111748 0)
(-0.599683 -0.0117617 0)
(-0.600425 -0.140743 0)
(-0.58088 -0.26796 0)
(-0.538754 -0.383746 0)
(-0.472721 -0.475654 0)
(-0.383863 -0.528865 0)
(-0.277375 -0.527926 0)
(-0.164372 -0.460187 0)
(-0.0656943 -0.320887 0)
(-0.0116639 -0.119352 0)
(-0.0100354 0.139677 0)
(-0.0527321 0.345422 0)
(-0.128088 0.477346 0)
(-0.214912 0.54397 0)
(-0.300919 0.557059 0)
(-0.380392 0.52775 0)
(-0.450331 0.465184 0)
(-0.509314 0.376339 0)
(-0.556691 0.266452 0)
(-0.591853 0.139741 0)
(-0.613694 0.000270581 0)
(-0.620277 -0.147066 0)
(-0.60871 -0.295471 0)
(-0.575378 -0.435109 0)
(-0.516778 -0.552121 0)
(-0.431202 -0.628311 0)
(-0.321148 -0.642396 0)
(-0.1966 -0.573852 0)
(-0.0815708 -0.410106 0)
(-0.015287 -0.156889 0)
(-0.0117867 0.168988 0)
(-0.0594405 0.411482 0)
(-0.140061 0.560657 0)
(-0.228643 0.63065 0)
(-0.312053 0.638832 0)
(-0.38559 0.60047 0)
(-0.447874 0.527258 0)
(-0.499222 0.427447 0)
(-0.540611 0.306601 0)
(-0.572808 0.168565 0)
(-0.595746 0.0165387 0)
(-0.608045 -0.145778 0)
(-0.606673 -0.312835 0)
(-0.586882 -0.475627 0)
(-0.542764 -0.619893 0)
(-0.468877 -0.724624 0)
(-0.363179 -0.762043 0)
(-0.232094 -0.700979 0)
(-0.101255 -0.516038 0)
(-0.0203297 -0.20405 0)
(-0.0146275 0.202717 0)
(-0.068887 0.483707 0)
(-0.154372 0.646728 0)
(-0.241164 0.714872 0)
(-0.315922 0.713504 0)
(-0.37613 0.663152 0)
(-0.423024 0.578398 0)
(-0.459368 0.468705 0)
(-0.488262 0.339724 0)
(-0.512255 0.194622 0)
(-0.532724 0.0353256 0)
(-0.549339 -0.136228 0)
(-0.559511 -0.316611 0)
(-0.557922 -0.498917 0)
(-0.536498 -0.670105 0)
(-0.485492 -0.80789 0)
(-0.396366 -0.878391 0)
(-0.268461 -0.837304 0)
(-0.125431 -0.639624 0)
(-0.0275045 -0.263603 0)
(-0.0196737 0.243381 0)
(-0.0834673 0.563354 0)
(-0.172684 0.733022 0)
(-0.251634 0.790678 0)
(-0.308544 0.773047 0)
(-0.345101 0.706996 0)
(-0.366481 0.609976 0)
(-0.378608 0.49226 0)
(-0.387043 0.359153 0)
(-0.396297 0.212776 0)
(-0.409408 0.0534631 0)
(-0.427502 -0.119034 0)
(-0.44913 -0.304141 0)
(-0.469375 -0.498382 0)
(-0.478982 -0.692064 0)
(-0.464239 -0.864393 0)
(-0.408715 -0.977655 0)
(-0.300432 -0.973559 0)
(-0.154453 -0.779658 0)
(-0.0379101 -0.339234 0)
(-0.0288999 0.29579 0)
(-0.106639 0.651957 0)
(-0.195691 0.814567 0)
(-0.255685 0.848476 0)
(-0.280669 0.805887 0)
(-0.279686 0.720365 0)
(-0.263298 0.611344 0)
(-0.240983 0.488886 0)
(-0.220627 0.357182 0)
(-0.208396 0.216878 0)
(-0.20877 0.0665424 0)
(-0.224418 -0.0963486 0)
(-0.255627 -0.274382 0)
(-0.299141 -0.468482 0)
(-0.346402 -0.674535 0)
(-0.38162 -0.87713 0)
(-0.380857 -1.03966 0)
(-0.31718 -1.09275 0)
(-0.187047 -0.930275 0)
(-0.052915 -0.435594 0)
(-0.0451418 0.368602 0)
(-0.141487 0.749514 0)
(-0.218428 0.880605 0)
(-0.238646 0.872431 0)
(-0.210782 0.795764 0)
(-0.155107 0.688957 0)
(-0.0882312 0.570901 0)
(-0.0225207 0.449494 0)
(0.0329143 0.326675 0)
(0.0713619 0.201182 0)
(0.0877787 0.069892 0)
(0.0784281 -0.071601 0)
(0.041111 -0.228605 0)
(-0.0237691 -0.406488 0)
(-0.110927 -0.608186 0)
(-0.206355 -0.827887 0)
(-0.282395 -1.03786 0)
(-0.297032 -1.16701 0)
(-0.216238 -1.07675 0)
(-0.0728251 -0.558328 0)
(-0.0699581 0.477587 0)
(-0.183517 0.84829 0)
(-0.216292 0.906231 0)
(-0.159933 0.835372 0)
(-0.0518839 0.720412 0)
(0.0750241 0.597012 0)
(0.200588 0.478542 0)
(0.312468 0.367986 0)
(0.402915 0.26385 0)
(0.466729 0.162785 0)
(0.499861 0.0604564 0)
(0.498606 -0.0484447 0)
(0.459361 -0.170567 0)
(0.379138 -0.314267 0)
(0.257492 -0.488988 0)
(0.101246 -0.701124 0)
(-0.0668559 -0.940995 0)
(-0.198056 -1.15396 0)
(-0.219565 -1.18815 0)
(-0.0916649 -0.714587 0)
(-0.0911173 0.643188 0)
(-0.194566 0.913268 0)
(-0.1089 0.837304 0)
(0.0779979 0.694467 0)
(0.288984 0.554439 0)
(0.4899 0.433084 0)
(0.666447 0.331756 0)
(0.812338 0.246587 0)
(0.925047 0.17255 0)
(1.00338 0.104892 0)
(1.04599 0.0391398 0)
(1.05055 -0.0294429 0)
(1.01322 -0.106722 0)
(0.928326 -0.200984 0)
(0.788871 -0.324425 0)
(0.589685 -0.493359 0)
(0.335431 -0.721729 0)
(0.0581385 -0.995744 0)
(-0.137818 -1.19822 0)
(-0.0796771 -0.894859 0)
(-0.00342749 0.795745 0)
(0.00403277 0.831421 0)
(0.324344 0.605746 0)
(0.675084 0.429603 0)
(0.967285 0.306825 0)
(1.20141 0.219815 0)
(1.38598 0.157221 0)
(1.52733 0.110618 0)
(1.63066 0.0738446 0)
(1.69973 0.0426116 0)
(1.73635 0.013756 0)
(1.74027 -0.0155209 0)
(1.70871 -0.0485198 0)
(1.63556 -0.0902155 0)
(1.51007 -0.149454 0)
(1.31568 -0.242667 0)
(1.02849 -0.398084 0)
(0.624851 -0.650503 0)
(0.193742 -0.97421 0)
(0.089732 -0.95476 0)
(0.873621 0.427901 0)
(1.1345 0.377526 0)
(1.59219 0.233659 0)
(1.9405 0.141584 0)
(2.15807 0.0878346 0)
(2.30085 0.0554019 0)
(2.3997 0.0353315 0)
(2.46836 0.0224056 0)
(2.51451 0.0134541 0)
(2.54273 0.00660914 0)
(2.5554 0.000733192 0)
(2.55315 -0.00498512 0)
(2.53498 -0.0114151 0)
(2.49774 -0.0198596 0)
(2.43444 -0.0329478 0)
(2.3307 -0.0566128 0)
(2.15311 -0.10435 0)
(1.82182 -0.203406 0)
(1.30572 -0.378948 0)
(0.955773 -0.456532 0)
)
;

boundaryField
{
    movingWall
    {
        type            fixedValue;
        value           uniform (3 0 0);
    }
    fixedWalls
    {
        type            noSlip;
    }
    frontAndBack
    {
        type            empty;
    }
}


// ************************************************************************* //
