/*--------------------------------*- C++ -*----------------------------------*\
  =========                 |
  \\      /  F ield         | OpenFOAM: The Open Source CFD Toolbox
   \\    /   O peration     | Website:  https://openfoam.org
    \\  /    A nd           | Version:  8
     \\/     M anipulation  |
\*---------------------------------------------------------------------------*/
FoamFile
{
    version     2.0;
    format      ascii;
    class       volScalarField;
    location    "0.5";
    object      p;
}
// * * * * * * * * * * * * * * * * * * * * * * * * * * * * * * * * * * * * * //

dimensions      [0 2 -2 0 0 0 0];

internalField   nonuniform List<scalar> 
400
(
1.24674e-05
-0.0204306
-0.0447831
-0.0630854
-0.0699529
-0.0630962
-0.0422607
-0.00853669
0.0359836
0.0883027
0.144547
0.200082
0.249819
0.288772
0.312841
0.319746
0.309969
0.287535
0.260417
0.240235
0.0203289
-0.000822843
-0.0198434
-0.0322812
-0.0358827
-0.0290958
-0.0116058
0.0158841
0.0518686
0.0940782
0.139493
0.18445
0.224909
0.256926
0.277292
0.284266
0.278284
0.262279
0.240867
0.220321
0.0461125
0.0169143
-0.0034636
-0.0146644
-0.017546
-0.0114614
0.00368272
0.0273011
0.0582561
0.0947868
0.134436
0.174089
0.210187
0.239134
0.257873
0.26456
0.259242
0.243925
0.220463
0.191746
0.0679451
0.0279974
0.00299803
-0.00958836
-0.0132945
-0.00829288
0.00522671
0.0266892
0.0552031
0.0893681
0.127084
0.165494
0.201123
0.230241
0.249425
0.256265
0.250176
0.232387
0.202684
0.162162
0.0791616
0.0283305
-0.00205816
-0.0168486
-0.0218822
-0.0180032
-0.00561763
0.0147333
0.042397
0.0762969
0.114615
0.154622
0.192731
0.224798
0.246696
0.2551
0.248545
0.227472
0.189939
0.136069
0.0745972
0.0133715
-0.022429
-0.0396096
-0.0460364
-0.0430876
-0.0312909
-0.0110846
0.0171621
0.0527195
0.0940477
0.138501
0.182257
0.22055
0.248222
0.260643
0.255108
0.231073
0.184907
0.11622
0.0498494
-0.0211523
-0.0620575
-0.0814531
-0.089061
-0.0867016
-0.0749359
-0.0540079
-0.023913
0.0150557
0.0617188
0.113561
0.166506
0.215007
0.252557
0.272736
0.271055
0.24552
0.190415
0.104958
0.000814684
-0.0793452
-0.12483
-0.14597
-0.15431
-0.152091
-0.139844
-0.117518
-0.0845969
-0.0407716
0.0133269
0.0754916
0.141495
0.204968
0.257756
0.291071
0.297852
0.273801
0.210142
0.105416
-0.076567
-0.165355
-0.214698
-0.236778
-0.245105
-0.242417
-0.229197
-0.204996
-0.168616
-0.118902
-0.0556339
0.0196181
0.102764
0.186734
0.26154
0.315391
0.337595
0.320176
0.249528
0.122663
-0.186468
-0.28353
-0.335688
-0.357322
-0.364337
-0.360189
-0.345358
-0.318912
-0.278773
-0.222626
-0.148989
-0.0583019
0.0459982
0.156536
0.261537
0.345657
0.393296
0.390793
0.316812
0.165041
-0.333447
-0.438704
-0.491923
-0.510558
-0.513848
-0.5064
-0.488818
-0.459614
-0.415599
-0.352944
-0.268406
-0.160644
-0.0316818
0.11156
0.256004
0.382534
0.469358
0.494479
0.424401
0.246012
-0.523184
-0.636802
-0.687746
-0.69855
-0.693624
-0.679436
-0.656879
-0.623812
-0.575669
-0.506707
-0.411376
-0.285816
-0.129664
0.0517899
0.245283
0.428443
0.57243
0.643858
0.590799
0.38701
-0.764324
-0.88611
-0.927972
-0.921913
-0.900762
-0.873781
-0.842217
-0.803034
-0.749908
-0.67473
-0.569099
-0.425907
-0.241327
-0.0174999
0.234016
0.489296
0.712782
0.856928
0.843421
0.622245
-1.07286
-1.19965
-1.21815
-1.1789
-1.12814
-1.07865
-1.03163
-0.982491
-0.92252
-0.840677
-0.725195
-0.565085
-0.35208
-0.0835103
0.23337
0.576379
0.905817
1.15895
1.2228
1.00737
-1.482
-1.59919
-1.56414
-1.46344
-1.36246
-1.27655
-1.20523
-1.14091
-1.07133
-0.981758
-0.856543
-0.680371
-0.439813
-0.1259
0.261398
0.706651
1.17211
1.58323
1.78762
1.63405
-2.06203
-2.12085
-1.97006
-1.76197
-1.58194
-1.44236
-1.33692
-1.25221
-1.17056
-1.07238
-0.937646
-0.746444
-0.47977
-0.121231
0.339411
0.89985
1.53461
2.16829
2.61623
2.64701
-2.96004
-2.82005
-2.43526
-2.05254
-1.75732
-1.54597
-1.39876
-1.29138
-1.19776
-1.0922
-0.94979
-0.74588
-0.455668
-0.054388
0.48139
1.16986
2.01149
2.95038
3.80529
4.27042
-4.53634
-3.76819
-2.92687
-2.28713
-1.84325
-1.55014
-1.36349
-1.24021
-1.14217
-1.03658
-0.893769
-0.684862
-0.379612
0.0559024
0.661755
1.48572
2.57213
3.92439
5.48559
6.9707
-7.80266
-4.98891
-3.20523
-2.25401
-1.6912
-1.35768
-1.17228
-1.06811
-0.994443
-0.913413
-0.79335
-0.603818
-0.312265
0.121733
0.753938
1.66812
2.98164
4.86213
7.74335
11.8384
-13.8737
-6.16781
-2.77821
-1.62661
-1.1175
-0.871996
-0.779476
-0.760621
-0.761009
-0.744853
-0.684172
-0.552565
-0.320414
0.0494106
0.613472
1.47384
2.83387
5.17181
9.97467
19.1053
)
;

boundaryField
{
    movingWall
    {
        type            zeroGradient;
    }
    fixedWalls
    {
        type            zeroGradient;
    }
    frontAndBack
    {
        type            empty;
    }
}


// ************************************************************************* //
