/*--------------------------------*- C++ -*----------------------------------*\
  =========                 |
  \\      /  F ield         | OpenFOAM: The Open Source CFD Toolbox
   \\    /   O peration     | Website:  https://openfoam.org
    \\  /    A nd           | Version:  8
     \\/     M anipulation  |
\*---------------------------------------------------------------------------*/
FoamFile
{
    version     2.0;
    format      ascii;
    class       volScalarField;
    location    "0.3";
    object      p;
}
// * * * * * * * * * * * * * * * * * * * * * * * * * * * * * * * * * * * * * //

dimensions      [0 2 -2 0 0 0 0];

internalField   nonuniform List<scalar> 
400
(
2.60826e-07
-0.0204483
-0.0447984
-0.0630969
-0.0699619
-0.0631042
-0.0422689
-0.00854611
0.035972
0.088288
0.144529
0.20006
0.249794
0.288745
0.312815
0.319722
0.309948
0.287519
0.260404
0.240224
0.0203051
-0.000844919
-0.0198624
-0.032297
-0.0358962
-0.029108
-0.0116177
0.0158719
0.0518554
0.0940634
0.139476
0.184431
0.224888
0.256904
0.277271
0.284247
0.278268
0.262266
0.240856
0.220312
0.0460825
0.0168885
-0.00348583
-0.0146835
-0.0175626
-0.0114762
0.0036689
0.0272877
0.0582426
0.0947727
0.134421
0.174073
0.21017
0.239116
0.257856
0.264544
0.259229
0.243915
0.220456
0.191741
0.0679112
0.0279689
0.00297355
-0.00960958
-0.0133128
-0.00830877
0.00521258
0.0266763
0.0551909
0.0893561
0.127072
0.165481
0.201109
0.230227
0.249411
0.256252
0.250165
0.23238
0.202681
0.162162
0.0791261
0.0283011
-0.00208331
-0.0168704
-0.0219007
-0.0180186
-0.0056305
0.0147225
0.0423878
0.0762885
0.114606
0.154614
0.192721
0.224789
0.246686
0.255092
0.248539
0.227468
0.189939
0.136073
0.0745629
0.0133436
-0.0224527
-0.0396299
-0.0460532
-0.0431007
-0.0313006
-0.0110914
0.0171578
0.0527166
0.0940454
0.138498
0.182253
0.220546
0.248217
0.260639
0.255106
0.231073
0.18491
0.116228
0.0498193
-0.0211762
-0.0620775
-0.0814698
-0.0890739
-0.0867103
-0.0749404
-0.0540086
-0.0239107
0.0150601
0.061724
0.113566
0.166509
0.215009
0.252558
0.272737
0.271057
0.245524
0.190422
0.10497
0.000791817
-0.0793629
-0.124844
-0.145981
-0.154317
-0.152093
-0.139842
-0.117511
-0.0845861
-0.0407583
0.0133411
0.0755054
0.141507
0.204978
0.257764
0.291078
0.297859
0.273809
0.210153
0.10543
-0.0765801
-0.165364
-0.214704
-0.236782
-0.245105
-0.242412
-0.229187
-0.20498
-0.168596
-0.118879
-0.0556095
0.0196418
0.102785
0.186752
0.261555
0.315403
0.337606
0.320188
0.249542
0.122679
-0.18647
-0.28353
-0.335686
-0.357318
-0.364329
-0.360176
-0.345339
-0.318888
-0.278743
-0.222593
-0.148955
-0.0582684
0.046029
0.156563
0.26156
0.345675
0.393312
0.390808
0.316827
0.165059
-0.333437
-0.438694
-0.491913
-0.510547
-0.513833
-0.50638
-0.488792
-0.459582
-0.415562
-0.352903
-0.268364
-0.160602
-0.0316429
0.111595
0.256032
0.382557
0.469377
0.494495
0.424417
0.246029
-0.523162
-0.636784
-0.687729
-0.698533
-0.693603
-0.679411
-0.656848
-0.623775
-0.575627
-0.506661
-0.411328
-0.285769
-0.12962
0.0518287
0.245315
0.428469
0.572451
0.643875
0.590813
0.387024
-0.764295
-0.886086
-0.927951
-0.921892
-0.90074
-0.873754
-0.842185
-0.802995
-0.749864
-0.674681
-0.56905
-0.425858
-0.241282
-0.0174606
0.234049
0.489322
0.712802
0.856943
0.843433
0.622255
-1.07282
-1.19962
-1.21813
-1.17888
-1.12812
-1.07863
-1.0316
-0.982454
-0.922478
-0.840631
-0.725147
-0.565039
-0.352038
-0.0834748
0.233398
0.5764
0.905833
1.15896
1.22281
1.00738
-1.48197
-1.59917
-1.56412
-1.46342
-1.36244
-1.27654
-1.2052
-1.14088
-1.0713
-0.981716
-0.8565
-0.68033
-0.439778
-0.125872
0.261418
0.706664
1.17212
1.58324
1.78762
1.63404
-2.062
-2.12083
-1.97005
-1.76197
-1.58193
-1.44235
-1.33691
-1.25219
-1.17053
-1.07234
-0.937611
-0.746412
-0.479744
-0.121212
0.339421
0.899852
1.5346
2.16828
2.61621
2.64699
-2.96003
-2.82005
-2.43526
-2.05255
-1.75733
-1.54598
-1.39876
-1.29137
-1.19774
-1.09218
-0.949763
-0.745856
-0.45565
-0.0543785
0.48139
1.16985
2.01147
2.95036
3.80527
4.27039
-4.53634
-3.7682
-2.92688
-2.28715
-1.84327
-1.55016
-1.3635
-1.24021
-1.14216
-1.03656
-0.893749
-0.684844
-0.3796
0.0559055
0.661749
1.4857
2.5721
3.92436
5.48556
6.97067
-7.80267
-4.98893
-3.20525
-2.25404
-1.69123
-1.35771
-1.17229
-1.06812
-0.994439
-0.913402
-0.793336
-0.603804
-0.312256
0.121734
0.75393
1.66811
2.98162
4.8621
7.74332
11.8384
-13.8737
-6.16782
-2.77824
-1.62664
-1.11753
-0.872027
-0.779499
-0.760634
-0.761011
-0.744846
-0.684159
-0.552551
-0.320403
0.0494148
0.613467
1.47383
2.83385
5.17178
9.97464
19.1052
)
;

boundaryField
{
    movingWall
    {
        type            zeroGradient;
    }
    fixedWalls
    {
        type            zeroGradient;
    }
    frontAndBack
    {
        type            empty;
    }
}


// ************************************************************************* //
