/*--------------------------------*- C++ -*----------------------------------*\
  =========                 |
  \\      /  F ield         | OpenFOAM: The Open Source CFD Toolbox
   \\    /   O peration     | Website:  https://openfoam.org
    \\  /    A nd           | Version:  8
     \\/     M anipulation  |
\*---------------------------------------------------------------------------*/
FoamFile
{
    version     2.0;
    format      ascii;
    class       surfaceScalarField;
    location    "0.3";
    object      phi;
}
// * * * * * * * * * * * * * * * * * * * * * * * * * * * * * * * * * * * * * //

dimensions      [0 3 -1 0 0 0 0];

internalField   nonuniform List<scalar> 
760
(
4.57137e-08
-4.57146e-08
-8.80838e-08
1.33796e-07
-4.10488e-07
3.22402e-07
-8.6143e-07
4.50941e-07
-1.37503e-06
5.136e-07
-1.89206e-06
5.17024e-07
-2.36205e-06
4.69989e-07
-2.74288e-06
3.80822e-07
-3.00005e-06
2.57176e-07
-3.10731e-06
1.07261e-07
-3.04874e-06
-5.85736e-08
-2.82205e-06
-2.26687e-07
-2.44211e-06
-3.79939e-07
-1.94343e-06
-4.98683e-07
-1.38032e-06
-5.63112e-07
-8.23469e-07
-5.56848e-07
-3.51947e-07
-4.71522e-07
-4.02888e-08
-3.1166e-07
6.35854e-08
-1.03878e-07
6.35825e-08
-1.30158e-07
8.44444e-08
-6.54027e-07
6.57664e-07
-1.54205e-06
1.21042e-06
-2.68391e-06
1.59281e-06
-3.94783e-06
1.77752e-06
-5.20476e-06
1.77396e-06
-6.33842e-06
1.60365e-06
-7.24908e-06
1.29148e-06
-7.85564e-06
8.63737e-07
-8.09865e-06
3.50267e-07
-7.94519e-06
-2.12031e-07
-7.39511e-06
-7.76772e-07
-6.48696e-06
-1.2881e-06
-5.30142e-06
-1.68423e-06
-3.95966e-06
-1.90487e-06
-2.61413e-06
-1.90238e-06
-1.42989e-06
-1.65576e-06
-5.56172e-07
-1.18538e-06
-8.73285e-08
-5.72717e-07
-2.37483e-08
-3.39328e-07
4.23771e-07
-1.28311e-06
1.60145e-06
-2.70909e-06
2.63639e-06
-4.45265e-06
3.33637e-06
-6.33439e-06
3.65926e-06
-8.17981e-06
3.61938e-06
-9.83018e-06
3.25401e-06
-1.11483e-05
2.60957e-06
-1.20225e-05
1.73793e-06
-1.23716e-05
6.99405e-07
-1.21515e-05
-4.32079e-07
-1.13629e-05
-1.56541e-06
-1.00582e-05
-2.5928e-06
-8.34598e-06
-3.39646e-06
-6.3886e-06
-3.86225e-06
-4.39078e-06
-3.9002e-06
-2.57651e-06
-3.47003e-06
-1.15478e-06
-2.60711e-06
-2.77616e-07
-1.44988e-06
-3.01366e-07
-5.301e-07
9.53871e-07
-1.87884e-06
2.95018e-06
-3.81766e-06
4.57521e-06
-6.11608e-06
5.63478e-06
-8.54892e-06
6.09211e-06
-1.09064e-05
5.97681e-06
-1.30005e-05
5.34811e-06
-1.46694e-05
4.27847e-06
-1.57811e-05
2.84966e-06
-1.62387e-05
1.15703e-06
-1.59875e-05
-6.83279e-07
-1.50237e-05
-2.52918e-06
-1.34034e-05
-4.21313e-06
-1.12486e-05
-5.55129e-06
-8.74755e-06
-6.3633e-06
-6.14493e-06
-6.50282e-06
-3.71893e-06
-5.89605e-06
-1.74548e-06
-4.58056e-06
-4.55553e-07
-2.7398e-06
-7.56919e-07
-7.01296e-07
1.65517e-06
-2.42969e-06
4.67857e-06
-4.85334e-06
6.99885e-06
-7.67194e-06
8.45338e-06
-1.06147e-05
9.0349e-06
-1.34416e-05
8.8037e-06
-1.59434e-05
7.8499e-06
-1.79419e-05
6.27691e-06
-1.92909e-05
4.19872e-06
-1.98805e-05
1.74662e-06
-1.96433e-05
-9.20494e-07
-1.85643e-05
-3.60818e-06
-1.66922e-05
-6.08526e-06
-1.41497e-05
-8.09375e-06
-1.11397e-05
-9.37325e-06
-7.94115e-06
-9.70141e-06
-4.88965e-06
-8.94755e-06
-2.34178e-06
-7.12843e-06
-6.2678e-07
-4.4548e-06
-1.3837e-06
-8.57718e-07
2.51289e-06
-2.94078e-06
6.76162e-06
-5.82053e-06
9.8786e-06
-9.12766e-06
1.17605e-05
-1.25474e-05
1.24547e-05
-1.58138e-05
1.20701e-05
-1.87025e-05
1.07386e-05
-2.10254e-05
8.5998e-06
-2.26271e-05
5.8004e-06
-2.33858e-05
2.50534e-06
-2.32187e-05
-1.08763e-06
-2.20918e-05
-4.73507e-06
-2.00347e-05
-8.14236e-06
-1.71572e-05
-1.09713e-05
-1.36645e-05
-1.28659e-05
-9.86366e-06
-1.35023e-05
-6.15238e-06
-1.26588e-05
-2.98377e-06
-1.0297e-05
-8.07845e-07
-6.63073e-06
-2.19155e-06
-1.00361e-06
3.51651e-06
-3.41879e-06
9.1768e-06
-6.72463e-06
1.31844e-05
-1.04851e-05
1.55209e-05
-1.43446e-05
1.63142e-05
-1.80167e-05
1.57422e-05
-2.1269e-05
1.39909e-05
-2.39104e-05
1.12412e-05
-2.57817e-05
7.6717e-06
-2.67519e-05
3.47551e-06
-2.67204e-05
-1.11909e-06
-2.56272e-05
-5.82832e-06
-2.34699e-05
-1.02997e-05
-2.03288e-05
-1.41123e-05
-1.63945e-05
-1.68002e-05
-1.19905e-05
-1.79063e-05
-7.57649e-06
-1.70728e-05
-3.71859e-06
-1.41549e-05
-1.0174e-06
-9.33191e-06
-3.20895e-06
-1.1421e-06
4.65861e-06
-3.86875e-06
1.19034e-05
-7.56679e-06
1.68825e-05
-1.17348e-05
1.96889e-05
-1.59811e-05
2.05606e-05
-2.00061e-05
1.97672e-05
-2.35786e-05
1.75635e-05
-2.65143e-05
1.41768e-05
-2.86583e-05
9.81574e-06
-2.98758e-05
4.69299e-06
-3.00495e-05
-9.45391e-07
-2.90877e-05
-6.79014e-06
-2.69436e-05
-1.24437e-05
-2.36478e-05
-1.74081e-05
-1.93518e-05
-2.10963e-05
-1.43727e-05
-2.28854e-05
-9.22247e-06
-2.22231e-05
-4.593e-06
-1.87844e-05
-1.27462e-06
-1.26503e-05
-4.48357e-06
-1.27619e-06
5.9348e-06
-4.29535e-06
1.49226e-05
-8.34493e-06
2.09321e-05
-1.28567e-05
2.42007e-05
-1.74086e-05
2.51125e-05
-2.16987e-05
2.40572e-05
-2.55099e-05
2.13747e-05
-2.8678e-05
1.7345e-05
-3.10656e-05
1.22033e-05
-3.25438e-05
6.17125e-06
-3.29848e-05
-5.04416e-07
-3.22643e-05
-7.5106e-06
-3.02807e-05
-1.44274e-05
-2.69927e-05
-2.06961e-05
-2.24788e-05
-2.56101e-05
-1.70122e-05
-2.8352e-05
-1.11289e-05
-2.81064e-05
-5.64905e-06
-2.42643e-05
-1.59923e-06
-1.67001e-05
-6.0828e-06
-1.41145e-06
7.34626e-06
-4.70834e-06
1.82195e-05
-9.05971e-06
2.52834e-05
-1.38251e-05
2.8966e-05
-1.85597e-05
2.98471e-05
-2.29742e-05
2.84717e-05
-2.68841e-05
2.52846e-05
-3.01642e-05
2.0625e-05
-3.2712e-05
1.4751e-05
-3.44214e-05
7.88074e-06
-3.51667e-05
2.40857e-07
-3.47978e-05
-7.87955e-06
-3.31534e-05
-1.60717e-05
-3.00998e-05
-2.37498e-05
-2.56021e-05
-3.01078e-05
-1.98328e-05
-3.41213e-05
-1.32966e-05
-3.46426e-05
-6.92021e-06
-3.06406e-05
-2.01275e-06
-2.16076e-05
-8.09555e-06
-1.56076e-06
8.90702e-06
-5.13144e-06
2.17902e-05
-9.72378e-06
2.98758e-05
-1.46152e-05
3.38575e-05
-1.93507e-05
3.45826e-05
-2.36765e-05
3.27975e-05
-2.74656e-05
2.90737e-05
-3.06561e-05
2.38156e-05
-3.32041e-05
1.7299e-05
-3.50486e-05
9.72522e-06
-3.60866e-05
1.27886e-06
-3.61588e-05
-7.80734e-06
-3.50511e-05
-1.71794e-05
-3.25242e-05
-2.62767e-05
-2.83886e-05
-3.42434e-05
-2.26419e-05
-3.9868e-05
-1.56652e-05
-4.16193e-05
-8.42523e-06
-3.78806e-05
-2.54056e-06
-2.74922e-05
-1.06361e-05
-1.7519e-06
1.06589e-05
-5.61456e-06
2.56528e-05
-1.03714e-05
3.46326e-05
-1.52067e-05
3.86928e-05
-1.96801e-05
3.90561e-05
-2.36086e-05
3.67259e-05
-2.69569e-05
3.2422e-05
-2.97564e-05
2.66151e-05
-3.20485e-05
1.95911e-05
-3.38434e-05
1.15202e-05
-3.50886e-05
2.52401e-06
-3.56428e-05
-7.25309e-06
-3.52613e-05
-1.75609e-05
-3.36041e-05
-2.79338e-05
-3.0297e-05
-3.75506e-05
-2.50799e-05
-4.50851e-05
-1.80765e-05
-4.86226e-05
-1.01559e-05
-4.58012e-05
-3.21498e-06
-3.44331e-05
-1.38511e-05
-2.03997e-06
1.26989e-05
-6.24776e-06
2.98606e-05
-1.10604e-05
3.94452e-05
-1.55707e-05
4.32031e-05
-1.94045e-05
4.28899e-05
-2.25059e-05
3.98273e-05
-2.49764e-05
3.48925e-05
-2.69739e-05
2.86126e-05
-2.86506e-05
2.12679e-05
-3.01127e-05
1.29822e-05
-3.13864e-05
3.79779e-06
-3.23847e-05
-6.25483e-06
-3.28718e-05
-1.70739e-05
-3.24399e-05
-2.83657e-05
-3.05297e-05
-3.94608e-05
-2.65553e-05
-4.90595e-05
-2.02174e-05
-5.49605e-05
-1.20516e-05
-5.3967e-05
-4.07881e-06
-4.2406e-05
-1.79299e-05
-2.52677e-06
1.52256e-05
-7.16927e-06
3.45031e-05
-1.18463e-05
4.41222e-05
-1.56114e-05
4.69682e-05
-1.8263e-05
4.55415e-05
-1.99593e-05
4.15236e-05
-2.09936e-05
3.59268e-05
-2.16798e-05
2.92987e-05
-2.22967e-05
2.18848e-05
-2.3059e-05
1.37445e-05
-2.40921e-05
4.8309e-06
-2.53977e-05
-4.94927e-06
-2.68034e-05
-1.56682e-05
-2.79004e-05
-2.72687e-05
-2.79975e-05
-3.93636e-05
-2.61674e-05
-5.08895e-05
-2.15291e-05
-5.95989e-05
-1.39451e-05
-6.15509e-05
-5.18424e-06
-5.11669e-05
-2.31141e-05
-3.38449e-06
1.86101e-05
-8.53821e-06
3.96568e-05
-1.26727e-05
4.82568e-05
-1.49987e-05
4.92941e-05
-1.56898e-05
4.62326e-05
-1.52391e-05
4.1073e-05
-1.4184e-05
3.48717e-05
-1.30042e-05
2.8119e-05
-1.20956e-05
2.09762e-05
-1.17682e-05
1.34171e-05
-1.22429e-05
5.30565e-06
-1.363e-05
-3.56216e-06
-1.58753e-05
-1.34229e-05
-1.86662e-05
-2.44778e-05
-2.13048e-05
-3.67249e-05
-2.26142e-05
-4.95802e-05
-2.10603e-05
-6.11528e-05
-1.5438e-05
-6.71731e-05
-6.56426e-06
-6.00406e-05
-2.96784e-05
-4.84883e-06
2.3459e-05
-1.03665e-05
4.51745e-05
-1.30379e-05
5.09281e-05
-1.27608e-05
4.9017e-05
-1.0417e-05
4.38888e-05
-6.95568e-06
3.76117e-05
-3.16598e-06
3.1082e-05
3.48547e-07
2.46044e-05
3.13368e-06
1.81911e-05
4.83856e-06
1.17122e-05
5.18686e-06
4.95736e-06
3.97341e-06
-2.34871e-06
1.10158e-06
-1.05511e-05
-3.31682e-06
-2.00594e-05
-8.77212e-06
-3.12696e-05
-1.40877e-05
-4.42646e-05
-1.7224e-05
-5.80165e-05
-1.56192e-05
-6.87779e-05
-8.10188e-06
-6.7558e-05
-3.77803e-05
-7.04771e-06
3.05067e-05
-1.18877e-05
5.00145e-05
-1.11059e-05
5.01463e-05
-6.40639e-06
4.43176e-05
2.50712e-07
3.72317e-05
7.47605e-06
3.03864e-05
1.43618e-05
2.41962e-05
2.03282e-05
1.86381e-05
2.49893e-05
1.353e-05
2.80569e-05
8.64456e-06
2.92796e-05
3.73471e-06
2.84121e-05
-1.48127e-06
2.52212e-05
-7.36022e-06
1.95496e-05
-1.43878e-05
1.15025e-05
-2.32225e-05
1.839e-06
-3.46011e-05
-7.41915e-06
-4.87584e-05
-1.25125e-05
-6.36845e-05
-9.16163e-06
-7.09089e-05
-4.69419e-05
-9.24843e-06
3.97551e-05
-9.59201e-06
5.0358e-05
-1.60663e-06
4.2161e-05
9.70421e-06
3.30067e-05
2.14894e-05
2.54465e-05
3.24202e-05
1.94555e-05
4.18848e-05
1.47316e-05
4.96081e-05
1.09147e-05
5.54568e-05
7.68137e-06
5.93289e-05
4.77251e-06
6.10917e-05
1.97182e-06
6.05435e-05
-9.33005e-07
5.73839e-05
-4.20063e-06
5.12103e-05
-8.21422e-06
4.15941e-05
-1.36063e-05
2.83972e-05
-2.14043e-05
1.2621e-05
-3.29821e-05
-1.99916e-06
-4.90644e-05
-7.7777e-06
-6.51304e-05
-5.47196e-05
-5.18895e-06
4.4944e-05
8.9194e-06
3.62497e-05
2.84191e-05
2.26613e-05
4.64481e-05
1.49777e-05
6.16009e-05
1.02937e-05
7.3877e-05
7.17942e-06
8.35632e-05
5.04548e-06
9.09624e-05
3.51547e-06
9.63075e-05
2.33627e-06
9.97331e-05
1.34691e-06
0.000101265
4.3975e-07
0.00010081
-4.77831e-07
9.81099e-05
-1.50055e-06
9.26829e-05
-2.7872e-06
8.3714e-05
-4.63737e-06
7.00054e-05
-7.69567e-06
5.03742e-05
-1.33509e-05
2.5466e-05
-2.41562e-05
2.71818e-06
-4.23825e-05
-5.20014e-05
4.4944e-05
8.11937e-05
0.000103855
0.000118833
0.000129126
0.000136306
0.000141351
0.000144867
0.000147203
0.00014855
0.00014899
0.000148512
0.000147011
0.000144224
0.000139587
0.000131891
0.00011854
9.4384e-05
5.20014e-05
)
;

boundaryField
{
    movingWall
    {
        type            calculated;
        value           uniform 0;
    }
    fixedWalls
    {
        type            calculated;
        value           uniform 0;
    }
    frontAndBack
    {
        type            empty;
        value           nonuniform List<scalar> 0();
    }
}


// ************************************************************************* //
