/*--------------------------------*- C++ -*----------------------------------*\
  =========                 |
  \\      /  F ield         | OpenFOAM: The Open Source CFD Toolbox
   \\    /   O peration     | Website:  https://openfoam.org
    \\  /    A nd           | Version:  8
     \\/     M anipulation  |
\*---------------------------------------------------------------------------*/
FoamFile
{
    version     2.0;
    format      ascii;
    class       surfaceScalarField;
    location    "0.3";
    object      phi;
}
// * * * * * * * * * * * * * * * * * * * * * * * * * * * * * * * * * * * * * //

dimensions      [0 3 -1 0 0 0 0];

internalField   nonuniform List<scalar> 
760
(
3.48846e-08
-3.48681e-08
-6.31307e-08
9.80139e-08
-3.0271e-07
2.39579e-07
-6.39801e-07
3.37089e-07
-1.02458e-06
3.8478e-07
-1.41147e-06
3.86887e-07
-1.76153e-06
3.50059e-07
-2.04276e-06
2.81238e-07
-2.22991e-06
1.8715e-07
-2.30474e-06
7.48341e-08
-2.25722e-06
-4.75199e-08
-2.08731e-06
-1.69919e-07
-1.80688e-06
-2.80428e-07
-1.44118e-06
-3.65702e-07
-1.02887e-06
-4.12305e-07
-6.2004e-07
-4.08832e-07
-2.71235e-07
-3.48809e-07
-3.71497e-08
-2.34088e-07
4.46731e-08
-8.18235e-08
4.46744e-08
-9.42112e-08
5.93435e-08
-4.80401e-07
4.84202e-07
-1.13994e-06
8.99113e-07
-1.99157e-06
1.18873e-06
-2.93574e-06
1.32895e-06
-3.87378e-06
1.32493e-06
-4.71679e-06
1.19306e-06
-5.38957e-06
9.5401e-07
-5.83262e-06
6.30197e-07
-6.00418e-06
2.46398e-07
-5.88307e-06
-1.68633e-07
-5.4721e-06
-5.80887e-07
-4.8014e-06
-9.51134e-07
-3.93013e-06
-1.23697e-06
-2.94529e-06
-1.39715e-06
-1.9557e-06
-1.39842e-06
-1.07998e-06
-1.22454e-06
-4.27469e-07
-8.86594e-07
-7.08926e-08
-4.38401e-07
-2.62196e-08
-2.47911e-07
3.07256e-07
-9.44509e-07
1.1808e-06
-2.00343e-06
1.95804e-06
-3.30289e-06
2.48818e-06
-4.70711e-06
2.73317e-06
-6.08276e-06
2.70057e-06
-7.30876e-06
2.41906e-06
-8.28187e-06
1.92713e-06
-8.92027e-06
1.26859e-06
-9.1668e-06
4.92934e-07
-8.99292e-06
-3.42521e-07
-8.40295e-06
-1.17085e-06
-7.43811e-06
-1.91598e-06
-6.17844e-06
-2.49664e-06
-4.74103e-06
-2.83456e-06
-3.2723e-06
-2.86715e-06
-1.93295e-06
-2.56388e-06
-8.75237e-07
-1.9443e-06
-2.14371e-07
-1.09927e-06
-2.40593e-07
-3.88045e-07
6.95303e-07
-1.38477e-06
2.17752e-06
-2.82584e-06
3.39911e-06
-4.53977e-06
4.20211e-06
-6.35546e-06
4.54886e-06
-8.11208e-06
4.45719e-06
-9.66607e-06
3.97305e-06
-1.08957e-05
3.15676e-06
-1.17044e-05
2.07729e-06
-1.20242e-05
8.12728e-07
-1.18199e-05
-5.46775e-07
-1.10943e-05
-1.89652e-06
-9.8924e-06
-3.11784e-06
-8.3054e-06
-4.08364e-06
-6.46957e-06
-4.67039e-06
-4.55978e-06
-4.77694e-06
-2.77456e-06
-4.34911e-06
-1.31311e-06
-3.40575e-06
-3.47567e-07
-2.06481e-06
-5.88161e-07
-5.14486e-07
1.20979e-06
-1.79497e-06
3.45799e-06
-3.60061e-06
5.20475e-06
-5.70638e-06
6.30788e-06
-7.90516e-06
6.74764e-06
-1.00118e-05
6.56382e-06
-1.18658e-05
5.82709e-06
-1.33331e-05
4.62399e-06
-1.4307e-05
3.05124e-06
-1.47113e-05
1.21697e-06
-1.45033e-05
-7.54762e-07
-1.36798e-05
-2.71999e-06
-1.22832e-05
-4.51444e-06
-1.04072e-05
-5.9597e-06
-8.19954e-06
-6.87801e-06
-5.85929e-06
-7.11719e-06
-3.62423e-06
-6.58417e-06
-1.74876e-06
-5.28122e-06
-4.74193e-07
-3.33937e-06
-1.06235e-06
-6.31851e-07
1.84164e-06
-2.18187e-06
5.00801e-06
-4.33597e-06
7.35885e-06
-6.8148e-06
8.78671e-06
-9.37538e-06
9.30821e-06
-1.18108e-05
8.99921e-06
-1.39479e-05
7.96422e-06
-1.56449e-05
6.32095e-06
-1.6789e-05
4.19538e-06
-1.7297e-05
1.72501e-06
-1.71177e-05
-9.3412e-07
-1.62372e-05
-3.60043e-06
-1.46878e-05
-6.06384e-06
-1.25571e-05
-8.09044e-06
-9.99665e-06
-9.43846e-06
-7.22548e-06
-9.88836e-06
-4.52302e-06
-9.28663e-06
-2.20831e-06
-7.59594e-06
-6.05382e-07
-4.9423e-06
-1.66773e-06
-7.44484e-07
2.58612e-06
-2.55371e-06
6.81723e-06
-5.04123e-06
9.84637e-06
-7.87318e-06
1.16187e-05
-1.0772e-05
1.2207e-05
-1.35124e-05
1.17396e-05
-1.59137e-05
1.03655e-05
-1.78316e-05
8.2388e-06
-1.91515e-05
5.51536e-06
-1.97857e-05
2.35913e-06
-1.9673e-05
-1.04681e-06
-1.87848e-05
-4.48857e-06
-1.71351e-05
-7.71352e-06
-1.4795e-05
-1.04306e-05
-1.19091e-05
-1.23244e-05
-8.70903e-06
-1.30884e-05
-5.51576e-06
-1.24799e-05
-2.72241e-06
-1.03893e-05
-7.53465e-07
-6.91125e-06
-2.4212e-06
-8.55949e-07
3.44207e-06
-2.91751e-06
8.8788e-06
-5.72234e-06
1.26512e-05
-8.88083e-06
1.47772e-05
-1.20831e-05
1.54093e-05
-1.50909e-05
1.47474e-05
-1.7723e-05
1.29975e-05
-1.98399e-05
1.03557e-05
-2.13319e-05
7.00739e-06
-2.21105e-05
3.13773e-06
-2.21059e-05
-1.05148e-06
-2.12708e-05
-5.32368e-06
-1.95924e-05
-9.39186e-06
-1.71123e-05
-1.29107e-05
-1.39527e-05
-1.54841e-05
-1.03437e-05
-1.66974e-05
-6.64159e-06
-1.6182e-05
-3.32127e-06
-1.37096e-05
-9.30907e-07
-9.30162e-06
-3.3521e-06
-9.69674e-07
4.41174e-06
-3.27966e-06
1.11888e-05
-6.38183e-06
1.57534e-05
-9.82729e-06
1.82226e-05
-1.32773e-05
1.88594e-05
-1.64888e-05
1.79589e-05
-1.92903e-05
1.57991e-05
-2.15583e-05
1.26238e-05
-2.31973e-05
8.64635e-06
-2.41255e-05
4.06594e-06
-2.4268e-05
-9.08988e-07
-2.35577e-05
-6.03394e-06
-2.19473e-05
-1.10022e-05
-1.94333e-05
-1.54247e-05
-1.60934e-05
-1.88239e-05
-1.2133e-05
-2.06578e-05
-7.92639e-06
-2.03886e-05
-4.03214e-06
-1.76038e-05
-1.15042e-06
-1.21833e-05
-4.50252e-06
-1.09083e-06
5.50256e-06
-3.64939e-06
1.37474e-05
-7.02199e-06
1.9126e-05
-1.06939e-05
2.18945e-05
-1.43032e-05
2.24687e-05
-1.76145e-05
2.12702e-05
-2.04814e-05
1.86659e-05
-2.28113e-05
1.49537e-05
-2.45367e-05
1.03717e-05
-2.55941e-05
5.12336e-06
-2.59114e-05
-5.91711e-07
-2.54043e-05
-6.54104e-06
-2.39855e-05
-1.24211e-05
-2.15905e-05
-1.78196e-05
-1.82251e-05
-2.21893e-05
-1.40331e-05
-2.48498e-05
-9.374e-06
-2.50477e-05
-4.87771e-06
-2.21001e-05
-1.42598e-06
-1.56351e-05
-5.92851e-06
-1.22964e-06
6.7322e-06
-4.04448e-06
1.65622e-05
-7.64981e-06
2.27313e-05
-1.14558e-05
2.57006e-05
-1.50881e-05
2.6101e-05
-1.83385e-05
2.45206e-05
-2.11072e-05
2.14347e-05
-2.33528e-05
1.71992e-05
-2.50536e-05
1.20725e-05
-2.61799e-05
6.24969e-06
-2.66752e-05
-9.64521e-08
-2.64462e-05
-6.76999e-06
-2.5366e-05
-1.35012e-05
-2.32964e-05
-1.98892e-05
-2.014e-05
-2.53458e-05
-1.593e-05
-2.90598e-05
-1.09532e-05
-3.00245e-05
-5.87358e-06
-2.71798e-05
-1.77463e-06
-1.9734e-05
-7.70314e-06
-1.40679e-06
8.13899e-06
-4.49905e-06
1.96545e-05
-8.28115e-06
2.65134e-05
-1.20799e-05
2.94993e-05
-1.55302e-05
2.95513e-05
-1.84825e-05
2.7473e-05
-2.09133e-05
2.38655e-05
-2.2857e-05
1.91429e-05
-2.43584e-05
1.35739e-05
-2.54398e-05
7.33108e-06
-2.6077e-05
5.40781e-07
-2.61828e-05
-6.66417e-06
-2.55999e-05
-1.40841e-05
-2.41125e-05
-2.13767e-05
-2.14929e-05
-2.79653e-05
-1.76048e-05
-3.2948e-05
-1.25762e-05
-3.50531e-05
-7.02275e-06
-3.27332e-05
-2.21941e-06
-2.45373e-05
-9.92255e-06
-1.66231e-06
9.8013e-06
-5.07179e-06
2.30639e-05
-8.93778e-06
3.03794e-05
-1.25083e-05
3.30698e-05
-1.54739e-05
3.25169e-05
-1.77927e-05
2.97918e-05
-1.95562e-05
2.56289e-05
-2.09017e-05
2.04884e-05
-2.19602e-05
1.46324e-05
-2.28222e-05
8.19311e-06
-2.35138e-05
1.23238e-06
-2.39742e-05
-6.20372e-06
-2.40369e-05
-1.40214e-05
-2.34215e-05
-2.19921e-05
-2.1759e-05
-2.96278e-05
-1.8687e-05
-3.60199e-05
-1.40612e-05
-3.96789e-05
-8.30222e-06
-3.84922e-05
-2.79342e-06
-3.00461e-05
-1.2716e-05
-2.06907e-06
1.18704e-05
-5.84792e-06
2.68428e-05
-9.62098e-06
3.41524e-05
-1.26081e-05
3.60569e-05
-1.46473e-05
3.45561e-05
-1.58786e-05
3.10231e-05
-1.65537e-05
2.6304e-05
-1.6936e-05
2.08707e-05
-1.72523e-05
1.49487e-05
-1.76691e-05
8.60992e-06
-1.82745e-05
1.83772e-06
-1.9056e-05
-5.42221e-06
-1.98706e-05
-1.32068e-05
-2.04108e-05
-2.14519e-05
-2.01884e-05
-2.98502e-05
-1.85869e-05
-3.76214e-05
-1.50676e-05
-4.31982e-05
-9.63027e-06
-4.39295e-05
-3.54267e-06
-3.61338e-05
-1.62586e-05
-2.748e-06
1.46184e-05
-6.91106e-06
3.10058e-05
-1.02204e-05
3.74617e-05
-1.20393e-05
3.78759e-05
-1.25228e-05
3.50395e-05
-1.20901e-05
3.05904e-05
-1.11918e-05
2.54056e-05
-1.02203e-05
1.98992e-05
-9.48658e-06
1.4215e-05
-9.21965e-06
8.34299e-06
-9.56603e-06
2.1841e-06
-1.05762e-05
-4.41206e-06
-1.21697e-05
-1.16133e-05
-1.40767e-05
-1.9545e-05
-1.57649e-05
-2.8162e-05
-1.64029e-05
-3.69834e-05
-1.49787e-05
-4.46225e-05
-1.07825e-05
-4.81257e-05
-4.51305e-06
-4.24032e-05
-2.07717e-05
-3.85495e-06
1.84733e-05
-8.203e-06
3.53539e-05
-1.02564e-05
3.95152e-05
-9.95885e-06
3.75784e-05
-8.04555e-06
3.31262e-05
-5.303e-06
2.78479e-05
-2.37491e-06
2.24775e-05
2.61219e-07
1.72631e-05
2.26283e-06
1.22134e-05
3.38303e-06
7.22279e-06
3.44547e-06
2.12167e-06
2.34077e-06
-3.30736e-06
5.36506e-08
-9.32614e-06
-3.26624e-06
-1.62251e-05
-7.17974e-06
-2.42485e-05
-1.07965e-05
-3.33667e-05
-1.26888e-05
-4.27301e-05
-1.1182e-05
-4.96325e-05
-5.66824e-06
-4.7917e-05
-2.64399e-05
-5.43441e-06
2.39077e-05
-9.03767e-06
3.89571e-05
-8.23544e-06
3.87129e-05
-4.42021e-06
3.37631e-05
8.2562e-07
2.78804e-05
6.38612e-06
2.22873e-05
1.15499e-05
1.73138e-05
1.58827e-05
1.29303e-05
1.9115e-05
8.98109e-06
2.10612e-05
5.27653e-06
2.15702e-05
1.61271e-06
2.05029e-05
-2.24006e-06
1.774e-05
-6.56323e-06
1.32364e-05
-1.17215e-05
7.16101e-06
-1.81731e-05
1.63832e-07
-2.63695e-05
-6.24656e-06
-3.63197e-05
-9.44775e-06
-4.64313e-05
-6.62743e-06
-5.07373e-05
-3.30674e-05
-6.83191e-06
3.07396e-05
-6.67681e-06
3.8802e-05
-2.05929e-07
3.2242e-05
8.67179e-06
2.48854e-05
1.77279e-05
1.88243e-05
2.59391e-05
1.40762e-05
3.28633e-05
1.03896e-05
3.83317e-05
7.46186e-06
4.2286e-05
5.02687e-06
4.46889e-05
2.8736e-06
4.5476e-05
8.25593e-07
4.45274e-05
-1.29147e-06
4.16509e-05
-3.68676e-06
3.65909e-05
-6.66142e-06
2.91031e-05
-1.06853e-05
1.92025e-05
-1.64689e-05
7.7538e-06
-2.4871e-05
-2.47183e-06
-3.62057e-05
-6.03255e-06
-4.71766e-05
-3.90999e-05
-3.23763e-06
3.39773e-05
7.97347e-06
2.75909e-05
2.30554e-05
1.71601e-05
3.68056e-05
1.11353e-05
4.81525e-05
7.47735e-06
5.71384e-05
5.09024e-06
6.40424e-05
3.48563e-06
6.91484e-05
2.35584e-06
7.26746e-05
1.50065e-06
7.47538e-05
7.94388e-07
7.54267e-05
1.52764e-07
7.46335e-05
-4.98337e-07
7.21845e-05
-1.23776e-06
6.77177e-05
-2.19458e-06
6.06383e-05
-3.60595e-06
5.01198e-05
-5.95037e-06
3.54348e-05
-1.0186e-05
1.72523e-05
-1.80232e-05
1.15426e-06
-3.10786e-05
-3.79457e-05
3.39773e-05
6.15682e-05
7.87283e-05
8.98636e-05
9.73409e-05
0.000102431
0.000105917
0.000108273
0.000109773
0.000110568
0.00011072
0.000110222
0.000108984
0.00010679
0.000103184
9.72334e-05
8.70474e-05
6.90242e-05
3.79457e-05
)
;

boundaryField
{
    movingWall
    {
        type            calculated;
        value           uniform 0;
    }
    fixedWalls
    {
        type            calculated;
        value           uniform 0;
    }
    frontAndBack
    {
        type            empty;
        value           nonuniform List<scalar> 0();
    }
}


// ************************************************************************* //
