/*--------------------------------*- C++ -*----------------------------------*\
  =========                 |
  \\      /  F ield         | OpenFOAM: The Open Source CFD Toolbox
   \\    /   O peration     | Website:  https://openfoam.org
    \\  /    A nd           | Version:  8
     \\/     M anipulation  |
\*---------------------------------------------------------------------------*/
FoamFile
{
    version     2.0;
    format      ascii;
    class       volScalarField;
    location    "0.4";
    object      p;
}
// * * * * * * * * * * * * * * * * * * * * * * * * * * * * * * * * * * * * * //

dimensions      [0 2 -2 0 0 0 0];

internalField   nonuniform List<scalar> 
400
(
4.71968e-05
-0.029271
-0.063848
-0.0898025
-0.0999374
-0.0912368
-0.0632317
-0.0170658
0.04483
0.118662
0.199119
0.279419
0.351764
0.408295
0.442498
0.450854
0.434396
0.399796
0.359514
0.330887
0.0292621
-0.00117791
-0.028183
-0.0458076
-0.0513005
-0.0426491
-0.0193049
0.01808
0.06783
0.127128
0.191869
0.256711
0.315457
0.361853
0.390748
0.399412
0.388721
0.3636
0.331691
0.302683
0.0658793
0.023881
-0.0049394
-0.020692
-0.0251769
-0.0176802
0.00205666
0.0335926
0.0758317
0.126744
0.18309
0.240351
0.293013
0.335267
0.362086
0.370478
0.360684
0.336297
0.301159
0.260354
0.0959398
0.0386503
0.00347122
-0.0141429
-0.019975
-0.0144935
0.00222741
0.0298877
0.0678998
0.114908
0.168307
0.224001
0.276547
0.319782
0.347906
0.356864
0.345837
0.317337
0.272524
0.214348
0.10925
0.0367114
-0.00583483
-0.0265848
-0.0347711
-0.0318027
-0.0179385
0.00676637
0.0423013
0.0880139
0.141905
0.200171
0.257165
0.305917
0.339234
0.351322
0.339769
0.305907
0.248708
0.170293
0.0977193
0.0109895
-0.0388801
-0.0632366
-0.0742987
-0.0741755
-0.0631197
-0.0407751
-0.00642966
0.040099
0.0975223
0.162367
0.228679
0.288351
0.332205
0.351893
0.342616
0.304034
0.232888
0.13127
0.0544971
-0.0450447
-0.101745
-0.129782
-0.144012
-0.147063
-0.139007
-0.118882
-0.0850392
-0.0362111
0.0272999
0.102599
0.183532
0.26069
0.322322
0.356516
0.354875
0.314311
0.2285
0.0997922
-0.0264788
-0.137333
-0.200101
-0.231607
-0.249146
-0.255788
-0.251296
-0.23391
-0.200769
-0.149144
-0.0778721
0.0112481
0.11229
0.214643
0.303514
0.362243
0.377077
0.340256
0.240401
0.0797312
-0.150632
-0.271332
-0.339187
-0.373617
-0.394363
-0.405008
-0.404974
-0.391543
-0.360334
-0.306669
-0.227242
-0.121935
0.00439193
0.140478
0.26835
0.365384
0.410176
0.387208
0.276362
0.0782871
-0.322743
-0.452046
-0.523632
-0.559724
-0.582898
-0.597552
-0.602868
-0.595075
-0.567969
-0.514382
-0.428036
-0.305768
-0.150078
0.0283161
0.208783
0.361897
0.455958
0.463254
0.348829
0.108374
-0.54711
-0.68424
-0.757309
-0.7922
-0.815425
-0.83285
-0.843679
-0.843066
-0.822715
-0.772417
-0.682039
-0.544077
-0.35695
-0.128886
0.118398
0.348839
0.518086
0.580597
0.477306
0.192035
-0.828371
-0.97317
-1.04342
-1.071
-1.08878
-1.10519
-1.11985
-1.1268
-1.1154
-1.07189
-0.981445
-0.830955
-0.612853
-0.330291
-0.00319433
0.327701
0.604489
0.757791
0.691752
0.365746
-1.17385
-1.32628
-1.38486
-1.39303
-1.3946
-1.40207
-1.4157
-1.42826
-1.42631
-1.39201
-1.30521
-1.14616
-0.899623
-0.560864
-0.144004
0.309955
0.731672
1.02345
1.03769
0.689173
-1.59931
-1.75655
-1.78478
-1.75124
-1.71801
-1.70297
-1.7066
-1.71953
-1.72472
-1.69957
-1.61806
-1.4532
-1.18099
-0.786507
-0.273594
0.323318
0.93026
1.42142
1.58392
1.26013
-2.1422
-2.28824
-2.24651
-2.13265
-2.03602
-1.97885
-1.95952
-1.96452
-1.97158
-1.95227
-1.87419
-1.70291
-1.40538
-0.955184
-0.342088
0.414381
1.24806
2.01439
2.431
2.23672
-2.88921
-2.96564
-2.77168
-2.51531
-2.31607
-2.19267
-2.13566
-2.12339
-2.12564
-2.10659
-2.02685
-1.84462
-1.51781
-1.00839
-0.289418
0.642669
1.74644
2.88061
3.71223
3.85669
-4.03473
-3.8636
-3.35856
-2.86934
-2.51949
-2.30495
-2.19795
-2.16191
-2.15463
-2.13108
-2.04424
-1.84503
-1.48264
-0.906778
-0.0712306
1.05866
2.4845
4.10249
5.59385
6.46953
-6.07327
-5.0871
-3.97107
-3.1381
-2.59225
-2.27126
-2.11406
-2.05885
-2.04648
-2.02145
-1.92951
-1.71521
-1.31942
-0.678725
0.277353
1.62666
3.43836
5.70559
8.31145
10.7912
-10.4211
-6.67238
-4.28207
-3.0343
-2.33198
-1.95667
-1.80027
-1.76949
-1.78729
-1.7906
-1.72206
-1.52374
-1.13235
-0.474557
0.54456
2.05829
4.25233
7.3762
12.0152
18.4016
-18.8804
-8.18315
-3.56704
-2.08078
-1.46662
-1.21086
-1.17923
-1.26398
-1.38199
-1.47248
-1.4829
-1.36011
-1.04571
-0.466499
0.475931
1.94551
4.26666
8.16457
15.6851
29.3048
)
;

boundaryField
{
    movingWall
    {
        type            zeroGradient;
    }
    fixedWalls
    {
        type            zeroGradient;
    }
    frontAndBack
    {
        type            empty;
    }
}


// ************************************************************************* //
