/*--------------------------------*- C++ -*----------------------------------*\
  =========                 |
  \\      /  F ield         | OpenFOAM: The Open Source CFD Toolbox
   \\    /   O peration     | Website:  https://openfoam.org
    \\  /    A nd           | Version:  8
     \\/     M anipulation  |
\*---------------------------------------------------------------------------*/
FoamFile
{
    version     2.0;
    format      ascii;
    class       volVectorField;
    location    "0.4";
    object      U;
}
// * * * * * * * * * * * * * * * * * * * * * * * * * * * * * * * * * * * * * //

dimensions      [0 1 -1 0 0 0 0];

internalField   nonuniform List<vector> 
400
(
(0.00118603 -0.00119249 0)
(0.000398383 0.000660776 0)
(-0.00635081 0.00282535 0)
(-0.0177017 0.00427931 0)
(-0.0317072 0.00499861 0)
(-0.0466165 0.00511235 0)
(-0.060942 0.00473591 0)
(-0.0734175 0.00394574 0)
(-0.0829457 0.00279019 0)
(-0.0885858 0.00131928 0)
(-0.0896114 -0.000383137 0)
(-0.0856283 -0.00217647 0)
(-0.0767219 -0.00385625 0)
(-0.063588 -0.0051693 0)
(-0.047595 -0.00585123 0)
(-0.0307255 -0.00568345 0)
(-0.0153599 -0.00456111 0)
(-0.00388739 -0.00256239 0)
(0.00184582 -9.34256e-05 0)
(0.00155007 0.0014984 0)
(-0.000611454 -0.000511614 0)
(-0.00882193 0.00870134 0)
(-0.0295992 0.0181325 0)
(-0.0594869 0.0246277 0)
(-0.0945726 0.0278381 0)
(-0.131229 0.0280622 0)
(-0.166084 0.0256919 0)
(-0.196128 0.0210723 0)
(-0.218745 0.0145125 0)
(-0.231777 0.00637956 0)
(-0.233667 -0.002793 0)
(-0.223694 -0.0122301 0)
(-0.20224 -0.0209079 0)
(-0.171 -0.0276348 0)
(-0.133056 -0.0312281 0)
(-0.0926994 -0.0307715 0)
(-0.0549315 -0.0259173 0)
(-0.024626 -0.0171798 0)
(-0.00565688 -0.00635443 0)
(0.000297219 0.00203363 0)
(-0.0030245 0.00638652 0)
(-0.0197914 0.0298667 0)
(-0.0547349 0.0513086 0)
(-0.101456 0.0659374 0)
(-0.154351 0.0729376 0)
(-0.208599 0.0727252 0)
(-0.259629 0.0660505 0)
(-0.303288 0.0537055 0)
(-0.335967 0.0365196 0)
(-0.354712 0.0155214 0)
(-0.357429 -0.0078638 0)
(-0.343175 -0.031684 0)
(-0.312483 -0.0534699 0)
(-0.267613 -0.0704303 0)
(-0.212657 -0.079851 0)
(-0.153334 -0.0796737 0)
(-0.0963612 -0.0691726 0)
(-0.0484119 -0.0495844 0)
(-0.0154049 -0.0247364 0)
(-0.0016628 -0.00261327 0)
(-0.00518586 0.0192333 0)
(-0.0300935 0.0632573 0)
(-0.0786684 0.0999318 0)
(-0.141123 0.124133 0)
(-0.210076 0.135052 0)
(-0.279742 0.133418 0)
(-0.344726 0.120454 0)
(-0.400134 0.0975072 0)
(-0.441708 0.0660622 0)
(-0.465938 0.0279836 0)
(-0.470283 -0.014196 0)
(-0.453491 -0.0570857 0)
(-0.415968 -0.0964552 0)
(-0.360115 -0.127542 0)
(-0.290526 -0.145687 0)
(-0.213897 -0.147273 0)
(-0.138409 -0.130858 0)
(-0.0726194 -0.0981969 0)
(-0.0250278 -0.055051 0)
(-0.00342962 -0.0124695 0)
(-0.00705689 0.0373623 0)
(-0.039405 0.107873 0)
(-0.100715 0.162612 0)
(-0.177824 0.197313 0)
(-0.261565 0.211886 0)
(-0.345308 0.207755 0)
(-0.423065 0.186806 0)
(-0.489468 0.151035 0)
(-0.539835 0.102634 0)
(-0.570231 0.044337 0)
(-0.577651 -0.0201793 0)
(-0.560353 -0.0860158 0)
(-0.518276 -0.147038 0)
(-0.453517 -0.196241 0)
(-0.370726 -0.226589 0)
(-0.277264 -0.23233 0)
(-0.182754 -0.21065 0)
(-0.0979953 -0.163256 0)
(-0.03477 -0.0974625 0)
(-0.00505704 -0.0272389 0)
(-0.00869567 0.0601932 0)
(-0.0477638 0.162833 0)
(-0.120744 0.238419 0)
(-0.211328 0.284524 0)
(-0.308664 0.302509 0)
(-0.4054 0.29496 0)
(-0.495147 0.264674 0)
(-0.572275 0.214389 0)
(-0.631858 0.14699 0)
(-0.669621 0.0660007 0)
(-0.682052 -0.0238654 0)
(-0.666703 -0.116285 0)
(-0.622683 -0.203192 0)
(-0.551289 -0.275112 0)
(-0.456717 -0.322111 0)
(-0.346621 -0.335472 0)
(-0.232013 -0.310002 0)
(-0.126347 -0.246413 0)
(-0.0455575 -0.153062 0)
(-0.00679394 -0.0470792 0)
(-0.0101431 0.0872166 0)
(-0.0552192 0.22716 0)
(-0.138683 0.326204 0)
(-0.241365 0.384582 0)
(-0.350899 0.405829 0)
(-0.459373 0.394193 0)
(-0.560199 0.353659 0)
(-0.647707 0.287792 0)
(-0.716926 0.200104 0)
(-0.763358 0.0947206 0)
(-0.782976 -0.022864 0)
(-0.772466 -0.145148 0)
(-0.729738 -0.262268 0)
(-0.654749 -0.362141 0)
(-0.550585 -0.431381 0)
(-0.424585 -0.457257 0)
(-0.288853 -0.430744 0)
(-0.15978 -0.350104 0)
(-0.0585177 -0.223876 0)
(-0.00893181 -0.0727551 0)
(-0.0114197 0.117954 0)
(-0.0617851 0.299798 0)
(-0.154408 0.424581 0)
(-0.267503 0.495946 0)
(-0.387379 0.520321 0)
(-0.505764 0.504154 0)
(-0.616125 0.452922 0)
(-0.713032 0.371098 0)
(-0.791727 0.262705 0)
(-0.847707 0.132197 0)
(-0.876542 -0.0145456 0)
(-0.873998 -0.16928 0)
(-0.836517 -0.320692 0)
(-0.76216 -0.454165 0)
(-0.652074 -0.552409 0)
(-0.512322 -0.597491 0)
(-0.355323 -0.57463 0)
(-0.200321 -0.477404 0)
(-0.0748493 -0.312948 0)
(-0.0117912 -0.105692 0)
(-0.012547 0.151937 0)
(-0.0674937 0.379623 0)
(-0.167811 0.531914 0)
(-0.289224 0.616603 0)
(-0.416878 0.643793 0)
(-0.542392 0.622729 0)
(-0.659609 0.560723 0)
(-0.7637 0.463254 0)
(-0.850493 0.334722 0)
(-0.915831 0.179572 0)
(-0.955175 0.00355761 0)
(-0.963533 -0.18497 0)
(-0.935794 -0.373885 0)
(-0.867664 -0.546457 0)
(-0.757423 -0.681362 0)
(-0.608486 -0.754361 0)
(-0.432113 -0.742571 0)
(-0.249577 -0.631599 0)
(-0.0957818 -0.424237 0)
(-0.0157448 -0.148004 0)
(-0.0135929 0.188738 0)
(-0.0725362 0.465492 0)
(-0.179021 0.646285 0)
(-0.306173 0.743901 0)
(-0.438098 0.773069 0)
(-0.566616 0.746539 0)
(-0.686371 0.673868 0)
(-0.793596 0.561668 0)
(-0.885202 0.414597 0)
(-0.957892 0.236737 0)
(-1.00753 0.0331298 0)
(-1.02882 -0.188573 0)
(-1.01533 -0.416396 0)
(-0.960226 -0.632422 0)
(-0.858067 -0.811765 0)
(-0.707939 -0.923237 0)
(-0.517607 -0.93337 0)
(-0.308323 -0.81529 0)
(-0.122564 -0.56232 0)
(-0.0212676 -0.202536 0)
(-0.0147506 0.228124 0)
(-0.077497 0.556428 0)
(-0.188751 0.765531 0)
(-0.318539 0.874399 0)
(-0.450022 0.90367 0)
(-0.575683 0.870495 0)
(-0.691532 0.78716 0)
(-0.795453 0.66157 0)
(-0.886041 0.498561 0)
(-0.961514 0.301534 0)
(-1.01887 0.0742408 0)
(-1.05326 -0.177271 0)
(-1.05761 -0.442434 0)
(-1.02288 -0.70366 0)
(-0.939414 -0.933884 0)
(-0.800271 -1.09535 0)
(-0.606591 -1.142 0)
(-0.375831 -1.02895 0)
(-0.156419 -0.731815 0)
(-0.0290162 -0.272957 0)
(-0.0164735 0.270386 0)
(-0.0837065 0.65198 0)
(-0.198736 0.887347 0)
(-0.327432 1.00369 0)
(-0.452211 1.02947 0)
(-0.566981 0.987371 0)
(-0.669921 0.892916 0)
(-0.761286 0.755475 0)
(-0.842029 0.580003 0)
(-0.912599 0.36899 0)
(-0.971975 0.124421 0)
(-1.01678 -0.150113 0)
(-1.04045 -0.446859 0)
(-1.03271 -0.750613 0)
(-0.980063 -1.03463 0)
(-0.868348 -1.25661 0)
(-0.688597 -1.3575 0)
(-0.448771 -1.26877 0)
(-0.19838 -0.936341 0)
(-0.0399392 -0.363907 0)
(-0.019712 0.316974 0)
(-0.0937486 0.752779 0)
(-0.21217 1.00933 0)
(-0.335026 1.1261 0)
(-0.444639 1.14226 0)
(-0.537729 1.08736 0)
(-0.615817 0.980609 0)
(-0.682381 0.832867 0)
(-0.741389 0.649123 0)
(-0.796157 0.43081 0)
(-0.848424 0.177879 0)
(-0.897381 -0.109141 0)
(-0.938456 -0.426582 0)
(-0.961916 -0.763939 0)
(-0.951905 -1.09833 0)
(-0.887236 -1.38711 0)
(-0.745982 -1.56081 0)
(-0.51948 -1.52357 0)
(-0.248799 -1.17663 0)
(-0.0553984 -0.481192 0)
(-0.026325 0.371621 0)
(-0.11213 0.861168 0)
(-0.233809 1.12866 0)
(-0.343759 1.23384 0)
(-0.426189 1.2309 0)
(-0.483146 1.15755 0)
(-0.52116 1.03666 0)
(-0.547865 0.88026 0)
(-0.570745 0.693112 0)
(-0.596309 0.475482 0)
(-0.629492 0.22527 0)
(-0.672866 -0.0602076 0)
(-0.725317 -0.382102 0)
(-0.779948 -0.736605 0)
(-0.82144 -1.10875 0)
(-0.823924 -1.46194 0)
(-0.75192 -1.72322 0)
(-0.573324 -1.77102 0)
(-0.30606 -1.44711 0)
(-0.0771563 -0.631734 0)
(-0.0396956 0.442192 0)
(-0.145811 0.981406 0)
(-0.268625 1.24054 0)
(-0.352861 1.31516 0)
(-0.389829 1.27996 0)
(-0.391158 1.18122 0)
(-0.370476 1.04449 0)
(-0.34032 0.881873 0)
(-0.311723 0.697215 0)
(-0.294115 0.489422 0)
(-0.295367 0.254562 0)
(-0.321525 -0.012834 0)
(-0.375803 -0.318538 0)
(-0.45633 -0.666309 0)
(-0.552241 -1.05252 0)
(-0.638063 -1.4542 0)
(-0.668427 -1.80682 0)
(-0.584593 -1.97385 0)
(-0.363254 -1.73041 0)
(-0.10661 -0.82266 0)
(-0.0650899 0.543755 0)
(-0.20287 1.11797 0)
(-0.315412 1.33386 0)
(-0.34777 1.35036 0)
(-0.31033 1.26733 0)
(-0.2303 1.1373 0)
(-0.129991 0.985377 0)
(-0.0265592 0.821477 0)
(0.0664491 0.647216 0)
(0.137977 0.459758 0)
(0.178496 0.253697 0)
(0.179488 0.0217586 0)
(0.133767 -0.245079 0)
(0.0370683 -0.557109 0)
(-0.107978 -0.923127 0)
(-0.283641 -1.3403 0)
(-0.444301 -1.76796 0)
(-0.510056 -2.07778 0)
(-0.400487 -1.99043 0)
(-0.141363 -1.06019 0)
(-0.107278 0.704734 0)
(-0.28273 1.26695 0)
(-0.34456 1.37779 0)
(-0.272136 1.30211 0)
(-0.117251 1.15977 0)
(0.0733778 0.999809 0)
(0.270876 0.840509 0)
(0.456639 0.685909 0)
(0.617719 0.533706 0)
(0.744191 0.378923 0)
(0.827277 0.215212 0)
(0.858149 0.0348772 0)
(0.827458 -0.171975 0)
(0.725651 -0.418876 0)
(0.545351 -0.724034 0)
(0.28919 -1.10626 0)
(-0.0126505 -1.56328 0)
(-0.279611 -2.01091 0)
(-0.370642 -2.16228 0)
(-0.164932 -1.3479 0)
(-0.153134 0.967648 0)
(-0.334868 1.38466 0)
(-0.232122 1.29104 0)
(0.0359564 1.10069 0)
(0.354048 0.911085 0)
(0.669939 0.742962 0)
(0.960923 0.598552 0)
(1.21529 0.472991 0)
(1.42637 0.359421 0)
(1.58937 0.251149 0)
(1.69933 0.141895 0)
(1.74978 0.0251612 0)
(1.732 -0.107054 0)
(1.63402 -0.266674 0)
(1.44033 -0.473576 0)
(1.13513 -0.759957 0)
(0.715218 -1.16514 0)
(0.220302 -1.68797 0)
(-0.173041 -2.12396 0)
(-0.117836 -1.64503 0)
(-0.0454456 1.25345 0)
(-0.068456 1.30064 0)
(0.409844 0.956806 0)
(0.950241 0.69998 0)
(1.41559 0.521511 0)
(1.80376 0.39193 0)
(2.12486 0.295726 0)
(2.38524 0.221619 0)
(2.58973 0.160879 0)
(2.7414 0.107197 0)
(2.84081 0.0559247 0)
(2.88565 0.00312776 0)
(2.87032 -0.0554293 0)
(2.78452 -0.126323 0)
(2.61066 -0.221961 0)
(2.32028 -0.368966 0)
(1.86921 -0.622673 0)
(1.20129 -1.06452 0)
(0.441927 -1.66297 0)
(0.211954 -1.67417 0)
(1.41863 0.697452 0)
(1.81168 0.617884 0)
(2.53031 0.392438 0)
(3.09666 0.24766 0)
(3.46553 0.161387 0)
(3.71856 0.107333 0)
(3.90279 0.0724476 0)
(4.03844 0.0490732 0)
(4.13639 0.0322567 0)
(4.20304 0.0189137 0)
(4.24147 0.00712788 0)
(4.2522 -0.00441102 0)
(4.23345 -0.0168065 0)
(4.18053 -0.0317463 0)
(4.08371 -0.0524381 0)
(3.92207 -0.0868585 0)
(3.6468 -0.156555 0)
(3.12527 -0.312501 0)
(2.26302 -0.614437 0)
(1.64211 -0.768341 0)
)
;

boundaryField
{
    movingWall
    {
        type            fixedValue;
        value           uniform (5 0 0);
    }
    fixedWalls
    {
        type            noSlip;
    }
    frontAndBack
    {
        type            empty;
    }
}


// ************************************************************************* //
