/*--------------------------------*- C++ -*----------------------------------*\
  =========                 |
  \\      /  F ield         | OpenFOAM: The Open Source CFD Toolbox
   \\    /   O peration     | Website:  https://openfoam.org
    \\  /    A nd           | Version:  8
     \\/     M anipulation  |
\*---------------------------------------------------------------------------*/
FoamFile
{
    version     2.0;
    format      ascii;
    class       volScalarField;
    location    "0.1";
    object      p;
}
// * * * * * * * * * * * * * * * * * * * * * * * * * * * * * * * * * * * * * //

dimensions      [0 2 -2 0 0 0 0];

internalField   nonuniform List<scalar> 
400
(
-6.05371e-08
-0.0103004
-0.0227529
-0.0321483
-0.0355255
-0.0315886
-0.0202336
-0.00217869
0.0212764
0.0483925
0.0770904
0.105057
0.129898
0.149358
0.161609
0.16561
0.161508
0.15103
0.137811
0.127519
0.0102485
-0.000369882
-0.0101017
-0.0165
-0.0182026
-0.0143149
-0.00470337
0.0101324
0.0292242
0.0512307
0.0745153
0.0972416
0.11751
0.133545
0.143937
0.147907
0.145606
0.138275
0.127881
0.117352
0.0234983
0.0087981
-0.00169936
-0.00753328
-0.00887455
-0.00528676
0.00323729
0.0162368
0.0329062
0.052138
0.0725595
0.0926005
0.110606
0.124996
0.134471
0.138238
0.136281
0.129375
0.118038
0.103383
0.0351838
0.0149424
0.00194746
-0.00467988
-0.0063988
-0.00318376
0.00479468
0.0170229
0.0327523
0.0509942
0.0705105
0.0898448
0.107407
0.121613
0.131063
0.134767
0.132443
0.124465
0.110209
0.089724
0.0421967
0.0162033
0.000252337
-0.00756022
-0.0098046
-0.00680623
0.00109366
0.0133071
0.0291036
0.0475621
0.0675146
0.0875403
0.106018
0.121241
0.131587
0.135751
0.133115
0.123669
0.105823
0.0789338
0.0422025
0.0104962
-0.00849027
-0.0175143
-0.0201462
-0.0170174
-0.00862346
0.0043713
0.0212395
0.0411017
0.0628242
0.0849706
0.105819
0.123451
0.135908
0.141452
0.139028
0.128212
0.106491
0.0727308
0.033179
-0.00420187
-0.0261259
-0.0361452
-0.0388027
-0.0350232
-0.0254471
-0.0108088
0.00817034
0.0306518
0.0555284
0.0813286
0.106189
0.127905
0.144075
0.152381
0.15119
0.139536
0.113872
0.0726133
0.013091
-0.0299818
-0.0546073
-0.0651757
-0.0672713
-0.0621423
-0.0505799
-0.0333785
-0.0112318
0.0150908
0.0445376
0.0756222
0.106336
0.134146
0.156097
0.169129
0.170806
0.159382
0.12996
0.0803718
-0.0203366
-0.0691961
-0.0961356
-0.106535
-0.107207
-0.0998066
-0.0853057
-0.0645471
-0.0381565
-0.00677322
0.028678
0.0667649
0.105383
0.141669
0.172034
0.192475
0.199458
0.190065
0.157461
0.0985536
-0.0698112
-0.124635
-0.153249
-0.162344
-0.160315
-0.149391
-0.130778
-0.105355
-0.0736171
-0.0359777
0.00688619
0.0537278
0.102466
0.14998
0.192017
0.223438
0.239236
0.23473
0.200208
0.130967
-0.13874
-0.199767
-0.228921
-0.234841
-0.228151
-0.211919
-0.187665
-0.156286
-0.118058
-0.0730255
-0.0214434
0.0358305
0.0969531
0.15873
0.216324
0.263335
0.292867
0.297673
0.263696
0.183362
-0.231752
-0.299153
-0.326689
-0.326252
-0.311796
-0.287618
-0.255644
-0.216737
-0.170809
-0.117349
-0.0559505
0.0131973
0.0888175
0.167984
0.245545
0.313891
0.363885
0.384726
0.355855
0.26451
-0.35582
-0.42917
-0.450823
-0.438525
-0.411351
-0.375308
-0.332752
-0.284356
-0.229444
-0.166683
-0.09471
-0.0126888
0.0791152
0.178578
0.280797
0.377352
0.456793
0.503735
0.488174
0.38808
-0.522785
-0.599294
-0.606409
-0.572767
-0.525133
-0.471565
-0.414609
-0.354372
-0.289195
-0.216553
-0.133765
-0.0385532
0.0703583
0.192386
0.323818
0.45641
0.576989
0.664956
0.677412
0.576259
-0.754839
-0.824137
-0.79892
-0.727943
-0.648302
-0.569583
-0.493614
-0.419098
-0.342706
-0.260195
-0.167156
-0.0594362
0.0663465
0.21203
0.37645
0.553392
0.729851
0.880814
0.947845
0.866516
-1.09485
-1.12583
-1.03272
-0.898741
-0.771112
-0.658109
-0.558582
-0.468142
-0.380667
-0.289479
-0.187999
-0.0698392
0.0710054
0.239697
0.439328
0.668639
0.918772
1.16415
1.33254
1.32146
-1.62577
-1.53521
-1.30846
-1.07423
-0.878689
-0.722174
-0.596286
-0.490529
-0.394228
-0.297478
-0.191125
-0.0663245
0.0858776
0.274787
0.509719
0.798457
1.14263
1.52444
1.87257
2.04471
-2.5421
-2.08961
-1.60637
-1.22652
-0.945271
-0.741207
-0.592077
-0.476767
-0.377979
-0.281971
-0.177071
-0.0521843
0.104429
0.306648
0.571973
0.922238
1.37847
1.94875
2.62024
3.25857
-4.37475
-2.80343
-1.79974
-1.24238
-0.891973
-0.664644
-0.515919
-0.411097
-0.326137
-0.244666
-0.154022
-0.0424183
0.102905
0.298766
0.570176
0.955967
1.50952
2.31488
3.60757
5.51458
-7.60426
-3.49877
-1.63816
-0.954855
-0.626069
-0.445642
-0.346595
-0.286553
-0.240093
-0.19234
-0.13286
-0.0525603
0.0592086
0.217004
0.44577
0.793007
1.35004
2.34793
4.57964
9.0598
)
;

boundaryField
{
    movingWall
    {
        type            zeroGradient;
    }
    fixedWalls
    {
        type            zeroGradient;
    }
    frontAndBack
    {
        type            empty;
    }
}


// ************************************************************************* //
