/*--------------------------------*- C++ -*----------------------------------*\
  =========                 |
  \\      /  F ield         | OpenFOAM: The Open Source CFD Toolbox
   \\    /   O peration     | Website:  https://openfoam.org
    \\  /    A nd           | Version:  8
     \\/     M anipulation  |
\*---------------------------------------------------------------------------*/
FoamFile
{
    version     2.0;
    format      ascii;
    class       surfaceScalarField;
    location    "0.1";
    object      phi;
}
// * * * * * * * * * * * * * * * * * * * * * * * * * * * * * * * * * * * * * //

dimensions      [0 3 -1 0 0 0 0];

internalField   nonuniform List<scalar> 
760
(
2.43497e-08
-2.43498e-08
-4.15279e-08
6.58774e-08
-2.04769e-07
1.63239e-07
-4.35731e-07
2.30961e-07
-6.99941e-07
2.64209e-07
-9.65376e-07
2.65436e-07
-1.20461e-06
2.3923e-07
-1.39539e-06
1.90786e-07
-1.52072e-06
1.25331e-07
-1.56895e-06
4.82313e-08
-1.53432e-06
-3.46373e-08
-1.41775e-06
-1.1657e-07
-1.22782e-06
-1.89928e-07
-9.81453e-07
-2.46369e-07
-7.03968e-07
-2.77484e-07
-4.28045e-07
-2.75923e-07
-1.90961e-07
-2.37085e-07
-2.96742e-08
-1.61287e-07
2.89602e-08
-5.86342e-08
2.89596e-08
-6.24427e-08
3.80943e-08
-3.23368e-07
3.26803e-07
-7.72286e-07
6.12161e-07
-1.35433e-06
8.13001e-07
-2.00067e-06
9.10557e-07
-2.64241e-06
9.07172e-07
-3.21744e-06
8.14256e-07
-3.67383e-06
6.47182e-07
-3.97152e-06
4.23022e-07
-4.08351e-06
1.60216e-07
-3.99727e-06
-1.20876e-07
-3.71642e-06
-3.97415e-07
-3.26226e-06
-6.44086e-07
-2.67454e-06
-8.34093e-07
-2.01061e-06
-9.41408e-07
-1.34201e-06
-9.4453e-07
-7.47226e-07
-8.31863e-07
-3.00085e-07
-6.08426e-07
-5.19121e-08
-3.06806e-07
-2.29538e-08
-1.66014e-07
2.04109e-07
-6.37418e-07
7.98203e-07
-1.35837e-06
1.33311e-06
-2.24623e-06
1.70086e-06
-3.20696e-06
1.87129e-06
-4.14744e-06
1.84765e-06
-4.98323e-06
1.65004e-06
-5.6432e-06
1.30716e-06
-6.07227e-06
8.5209e-07
-6.23339e-06
3.21332e-07
-6.10957e-06
-2.44695e-07
-5.70599e-06
-8.00991e-07
-5.05184e-06
-1.29824e-06
-4.20112e-06
-1.68482e-06
-3.23135e-06
-1.91117e-06
-2.23898e-06
-1.9369e-06
-1.3303e-06
-1.74055e-06
-6.07602e-07
-1.33113e-06
-1.51085e-07
-7.63323e-07
-1.74038e-07
-2.60667e-07
4.64777e-07
-9.36773e-07
1.47431e-06
-1.91989e-06
2.31623e-06
-3.09289e-06
2.87386e-06
-4.33668e-06
3.11508e-06
-5.53846e-06
3.04943e-06
-6.5979e-06
2.70949e-06
-7.43113e-06
2.14038e-06
-7.97322e-06
1.39418e-06
-8.1803e-06
5.28411e-07
-8.03165e-06
-3.9334e-07
-7.53213e-06
-1.30051e-06
-6.71444e-06
-2.11593e-06
-5.6406e-06
-2.75867e-06
-4.40124e-06
-3.15053e-06
-3.11155e-06
-3.22659e-06
-1.90241e-06
-2.94969e-06
-9.06737e-07
-2.3268e-06
-2.4278e-07
-1.42728e-06
-4.16817e-07
-3.46981e-07
8.11759e-07
-1.21925e-06
2.34657e-06
-2.45606e-06
3.55303e-06
-3.90237e-06
4.32017e-06
-5.41279e-06
4.62551e-06
-6.85654e-06
4.49318e-06
-8.12091e-06
3.97386e-06
-9.11329e-06
3.13276e-06
-9.76236e-06
2.04325e-06
-1.00193e-05
7.85348e-07
-9.85956e-06
-5.53069e-07
-9.28546e-06
-1.87462e-06
-8.32919e-06
-3.0722e-06
-7.05571e-06
-4.03215e-06
-5.56401e-06
-4.64223e-06
-3.98509e-06
-4.80551e-06
-2.47493e-06
-4.45985e-06
-1.20183e-06
-3.5999e-06
-3.29389e-07
-2.29972e-06
-7.46206e-07
-4.28901e-07
1.24066e-06
-1.49177e-06
3.40944e-06
-2.9764e-06
5.03767e-06
-4.68809e-06
6.03186e-06
-6.45437e-06
6.3918e-06
-8.12763e-06
6.16643e-06
-9.58543e-06
5.43167e-06
-1.07297e-05
4.277e-06
-1.14854e-05
2.79897e-06
-1.18003e-05
1.10026e-06
-1.16456e-05
-7.07746e-07
-1.10187e-05
-2.50157e-06
-9.94701e-06
-4.14387e-06
-8.49346e-06
-5.4857e-06
-6.76072e-06
-6.37497e-06
-4.8931e-06
-6.67312e-06
-3.07286e-06
-6.28009e-06
-1.50891e-06
-5.16386e-06
-4.17925e-07
-3.3907e-06
-1.16413e-06
-5.1023e-07
1.75089e-06
-1.76229e-06
4.6615e-06
-3.49103e-06
6.76641e-06
-5.46036e-06
8.00119e-06
-7.47061e-06
8.40205e-06
-9.35918e-06
8.055e-06
-1.09972e-05
7.06971e-06
-1.22849e-05
5.56468e-06
-1.31468e-05
3.66092e-06
-1.35291e-05
1.48254e-06
-1.33986e-05
-8.38266e-07
-1.27452e-05
-3.155e-06
-1.15871e-05
-5.30197e-06
-9.97892e-06
-7.09386e-06
-8.02086e-06
-8.33303e-06
-5.86619e-06
-8.82779e-06
-3.72316e-06
-8.42312e-06
-1.84654e-06
-7.04048e-06
-5.15973e-07
-4.72126e-06
-1.68011e-06
-5.9423e-07
2.34512e-06
-2.03774e-06
6.10501e-06
-4.00721e-06
8.73588e-06
-6.22237e-06
1.02164e-05
-8.45698e-06
1.06367e-05
-1.05368e-05
1.01348e-05
-1.23317e-05
8.86454e-06
-1.37453e-05
6.97835e-06
-1.47067e-05
4.62234e-06
-1.51634e-05
1.93923e-06
-1.50786e-05
-9.23086e-07
-1.44326e-05
-3.801e-06
-1.32292e-05
-6.50539e-06
-1.15068e-05
-8.81623e-06
-9.35386e-06
-1.0486e-05
-6.92443e-06
-1.12572e-05
-4.44914e-06
-1.08984e-05
-2.23278e-06
-9.25684e-06
-6.31047e-07
-6.323e-06
-2.31115e-06
-6.84007e-07
3.02912e-06
-2.32421e-06
7.74521e-06
-4.52873e-06
1.09404e-05
-6.96866e-06
1.26563e-05
-9.39279e-06
1.30608e-05
-1.16211e-05
1.23632e-05
-1.35299e-05
1.07733e-05
-1.50345e-05
8.48301e-06
-1.60753e-05
5.6631e-06
-1.66062e-05
2.4701e-06
-1.6589e-05
-9.40267e-07
-1.59933e-05
-4.39669e-06
-1.48029e-05
-7.69574e-06
-1.30305e-05
-1.05887e-05
-1.07392e-05
-1.27773e-05
-8.07008e-06
-1.39264e-05
-5.26638e-06
-1.37021e-05
-2.68393e-06
-1.18393e-05
-7.70745e-07
-8.23619e-06
-3.0819e-06
-7.83709e-07
3.81283e-06
-2.6289e-06
9.5904e-06
-5.05727e-06
1.33688e-05
-7.68476e-06
1.52838e-05
-1.0239e-05
1.5615e-05
-1.25439e-05
1.46681e-05
-1.44938e-05
1.27232e-05
-1.60273e-05
1.00165e-05
-1.71056e-05
6.74141e-06
-1.76967e-05
3.06121e-06
-1.77656e-05
-8.71391e-07
-1.72715e-05
-4.89081e-06
-1.61736e-05
-8.7936e-06
-1.44475e-05
-1.23148e-05
-1.21138e-05
-1.5111e-05
-9.27846e-06
-1.67617e-05
-6.17838e-06
-1.68022e-05
-3.21412e-06
-1.48035e-05
-9.43544e-07
-1.05068e-05
-4.02544e-06
-9.00676e-07
4.71351e-06
-2.96349e-06
1.16532e-05
-5.59439e-06
1.59997e-05
-8.34643e-06
1.80358e-05
-1.09345e-05
1.82031e-05
-1.32021e-05
1.69358e-05
-1.50788e-05
1.45998e-05
-1.65414e-05
1.14791e-05
-1.75849e-05
7.78497e-06
-1.82012e-05
3.67748e-06
-1.83652e-05
-7.07418e-07
-1.8029e-05
-5.22696e-06
-1.7125e-05
-9.69766e-06
-1.5581e-05
-1.38588e-05
-1.3354e-05
-1.73379e-05
-1.04848e-05
-1.96309e-05
-7.17008e-06
-2.01169e-05
-3.83474e-06
-1.81389e-05
-1.16023e-06
-1.31813e-05
-5.18567e-06
-1.04903e-06
5.76253e-06
-3.34859e-06
1.39528e-05
-6.14245e-06
1.87935e-05
-8.91512e-06
2.08085e-05
-1.1387e-05
2.0675e-05
-1.34468e-05
1.89955e-05
-1.50823e-05
1.62353e-05
-1.63278e-05
1.27246e-05
-1.72261e-05
8.68331e-06
-1.7804e-05
4.25537e-06
-1.80555e-05
-4.55928e-07
-1.79323e-05
-5.35017e-06
-1.73417e-05
-1.02882e-05
-1.61576e-05
-1.50429e-05
-1.42527e-05
-1.92428e-05
-1.15639e-05
-2.23197e-05
-8.19609e-06
-2.34847e-05
-4.55248e-06
-2.17825e-05
-1.43623e-06
-1.62975e-05
-6.6219e-06
-1.25548e-06
7.01802e-06
-3.8179e-06
1.65152e-05
-6.69955e-06
2.16752e-05
-9.32306e-06
2.3432e-05
-1.14524e-05
2.28043e-05
-1.30607e-05
2.06038e-05
-1.42248e-05
1.73994e-05
-1.5056e-05
1.35558e-05
-1.5658e-05
9.28533e-06
-1.6102e-05
4.69929e-06
-1.641e-05
-1.47856e-07
-1.65435e-05
-5.21669e-06
-1.63939e-05
-1.04379e-05
-1.57834e-05
-1.56533e-05
-1.44874e-05
-2.05388e-05
-1.22987e-05
-2.45084e-05
-9.15864e-06
-2.66248e-05
-5.36313e-06
-2.5578e-05
-1.7952e-06
-1.98655e-05
-8.4171e-06
-1.56818e-06
8.58619e-06
-4.41698e-06
1.9364e-05
-7.23698e-06
2.44952e-05
-9.43356e-06
2.56286e-05
-1.0888e-05
2.42588e-05
-1.17158e-05
2.14316e-05
-1.21165e-05
1.78002e-05
-1.22938e-05
1.3733e-05
-1.24171e-05
9.40867e-06
-1.26047e-05
4.88686e-06
-1.29126e-05
1.60031e-07
-1.33231e-05
-4.80614e-06
-1.37296e-05
-1.00314e-05
-1.39209e-05
-1.54619e-05
-1.35809e-05
-2.08788e-05
-1.23309e-05
-2.57585e-05
-9.86528e-06
-2.90904e-05
-6.23338e-06
-2.92099e-05
-2.2728e-06
-2.3826e-05
-1.06899e-05
-2.06534e-06
1.06515e-05
-5.17864e-06
2.24773e-05
-7.63057e-06
2.69471e-05
-8.9481e-06
2.69461e-05
-9.26018e-06
2.45709e-05
-8.89656e-06
2.1068e-05
-8.20454e-06
1.71081e-05
-7.47805e-06
1.30066e-05
-6.94009e-06
8.87071e-06
-6.74405e-06
4.69082e-06
-6.97631e-06
3.92296e-07
-7.6497e-06
-4.13275e-06
-8.68443e-06
-8.99669e-06
-9.87527e-06
-1.42711e-05
-1.08548e-05
-1.98993e-05
-1.10843e-05
-2.55289e-05
-9.94536e-06
-3.02294e-05
-7.04867e-06
-3.21066e-05
-2.91205e-06
-2.79627e-05
-1.36019e-05
-2.84093e-06
1.34925e-05
-6.01665e-06
2.5653e-05
-7.47919e-06
2.84097e-05
-7.20906e-06
2.6676e-05
-5.77521e-06
2.3137e-05
-3.77833e-06
1.90711e-05
-1.69977e-06
1.50296e-05
1.15946e-07
1.11908e-05
1.43476e-06
7.5519e-06
2.10066e-06
4.02492e-06
2.01524e-06
4.7771e-07
1.13351e-06
-3.25102e-06
-5.19029e-07
-7.34415e-06
-2.8015e-06
-1.19886e-05
-5.38248e-06
-1.73183e-05
-7.65119e-06
-2.32602e-05
-8.68801e-06
-2.91926e-05
-7.47096e-06
-3.33236e-05
-3.71551e-06
-3.17181e-05
-1.73175e-05
-3.89075e-06
1.73832e-05
-6.38155e-06
2.81438e-05
-5.67339e-06
2.77015e-05
-2.82343e-06
2.3826e-05
9.84693e-07
1.93289e-05
4.92591e-06
1.51299e-05
8.49032e-06
1.14652e-05
1.13836e-05
8.29761e-06
1.34376e-05
5.49785e-06
1.45481e-05
2.91443e-06
1.46371e-05
3.8866e-07
1.36386e-05
-2.25247e-06
1.15054e-05
-5.21096e-06
8.25051e-06
-8.73376e-06
4.04084e-06
-1.31087e-05
-6.35638e-07
-1.85837e-05
-4.74984e-06
-2.50784e-05
-6.6074e-06
-3.14661e-05
-4.47369e-06
-3.38518e-05
-2.17911e-05
-4.68938e-06
2.20726e-05
-4.30524e-06
2.77597e-05
5.24124e-07
2.28721e-05
6.95786e-06
1.73923e-05
1.33823e-05
1.29044e-05
1.90741e-05
9.43811e-06
2.37462e-05
6.79308e-06
2.73134e-05
4.73042e-06
2.9767e-05
3.04426e-06
3.11083e-05
1.57306e-06
3.13144e-05
1.82595e-07
3.03208e-05
-1.25885e-06
2.80142e-05
-2.90439e-06
2.42471e-05
-4.96665e-06
1.88992e-05
-7.76073e-06
1.20494e-05
-1.17339e-05
4.35305e-06
-1.7382e-05
-2.29837e-06
-2.48147e-05
-4.3163e-06
-3.18339e-05
-2.61074e-05
-1.84004e-06
2.39126e-05
6.40675e-06
1.95129e-05
1.72183e-05
1.20606e-05
2.69286e-05
7.68193e-06
3.47914e-05
5.04163e-06
4.08765e-05
3.353e-06
4.54288e-05
2.24082e-06
4.86871e-05
1.47207e-06
5.08319e-05
8.99442e-07
5.19735e-05
4.3148e-07
5.21489e-05
7.23298e-09
5.13193e-05
-4.29249e-07
4.93508e-05
-9.35953e-07
4.59924e-05
-1.60822e-06
4.08466e-05
-2.61492e-06
3.33914e-05
-4.2788e-06
2.3219e-05
-7.20954e-06
1.08899e-05
-1.24856e-05
2.72453e-07
-2.12165e-05
-2.5835e-05
2.39126e-05
4.34255e-05
5.54861e-05
6.31681e-05
6.82097e-05
7.15627e-05
7.38035e-05
7.52756e-05
7.6175e-05
7.66065e-05
7.66137e-05
7.61845e-05
7.52485e-05
7.36403e-05
7.10254e-05
6.67466e-05
5.95371e-05
4.70515e-05
2.5835e-05
)
;

boundaryField
{
    movingWall
    {
        type            calculated;
        value           uniform 0;
    }
    fixedWalls
    {
        type            calculated;
        value           uniform 0;
    }
    frontAndBack
    {
        type            empty;
        value           nonuniform List<scalar> 0();
    }
}


// ************************************************************************* //
