/*--------------------------------*- C++ -*----------------------------------*\
  =========                 |
  \\      /  F ield         | OpenFOAM: The Open Source CFD Toolbox
   \\    /   O peration     | Website:  https://openfoam.org
    \\  /    A nd           | Version:  8
     \\/     M anipulation  |
\*---------------------------------------------------------------------------*/
FoamFile
{
    version     2.0;
    format      ascii;
    class       surfaceScalarField;
    location    "0.3";
    object      phi;
}
// * * * * * * * * * * * * * * * * * * * * * * * * * * * * * * * * * * * * * //

dimensions      [0 3 -1 0 0 0 0];

internalField   nonuniform List<scalar> 
760
(
2.73474e-08
-2.74323e-08
-4.71943e-08
7.45418e-08
-2.31476e-07
1.84281e-07
-4.91934e-07
2.60457e-07
-7.89777e-07
2.97842e-07
-1.08908e-06
2.99303e-07
-1.35909e-06
2.70006e-07
-1.57477e-06
2.15685e-07
-1.71684e-06
1.42063e-07
-1.77189e-06
5.50564e-08
-1.73313e-06
-3.87577e-08
-1.60139e-06
-1.31745e-07
-1.38628e-06
-2.15111e-07
-1.10707e-06
-2.79209e-07
-7.92721e-07
-3.14343e-07
-4.80587e-07
-3.12133e-07
-2.13083e-07
-2.67503e-07
-3.19124e-08
-1.8117e-07
3.31683e-08
-6.50802e-08
3.3169e-08
-7.10902e-08
4.36579e-08
-3.6652e-07
3.69972e-07
-8.73849e-07
6.91612e-07
-1.531e-06
9.1761e-07
-2.26049e-06
1.02734e-06
-2.98489e-06
1.02371e-06
-3.6344e-06
9.19513e-07
-4.15046e-06
7.31751e-07
-4.48762e-06
4.79221e-07
-4.61494e-06
1.82375e-07
-4.51779e-06
-1.35913e-07
-4.19989e-06
-4.49647e-07
-3.68525e-06
-7.29751e-07
-3.01913e-06
-9.45329e-07
-2.26703e-06
-1.06645e-06
-1.51054e-06
-1.06862e-06
-8.38916e-07
-9.39128e-07
-3.35485e-07
-6.84601e-07
-5.73588e-08
-3.43206e-07
-2.41893e-08
-1.8848e-07
2.32138e-07
-7.22046e-07
9.03537e-07
-1.53673e-06
1.50629e-06
-2.53911e-06
1.92e-06
-3.62341e-06
2.11163e-06
-4.68498e-06
2.08529e-06
-5.62893e-06
1.86346e-06
-6.37501e-06
1.47784e-06
-6.86073e-06
9.64943e-07
-7.04371e-06
3.6535e-07
-6.90414e-06
-2.75481e-07
-6.44744e-06
-9.06349e-07
-5.70651e-06
-1.47068e-06
-4.74277e-06
-1.90907e-06
-3.64464e-06
-2.16458e-06
-2.52203e-06
-2.19123e-06
-1.49578e-06
-1.96538e-06
-6.81488e-07
-1.49889e-06
-1.68769e-07
-8.55925e-07
-1.92958e-07
-2.95542e-07
5.27682e-07
-1.05987e-06
1.66786e-06
-2.16951e-06
2.61593e-06
-3.49234e-06
3.24283e-06
-4.89465e-06
3.51394e-06
-6.24995e-06
3.44058e-06
-7.44559e-06
3.0591e-06
-8.38701e-06
2.41926e-06
-9.0006e-06
1.57853e-06
-9.23614e-06
6.00888e-07
-9.06945e-06
-4.42168e-07
-8.50539e-06
-1.47041e-06
-7.58068e-06
-2.3954e-06
-6.36564e-06
-3.12411e-06
-4.96347e-06
-3.56674e-06
-3.50536e-06
-3.64934e-06
-2.14007e-06
-3.33067e-06
-1.01801e-06
-2.62095e-06
-2.71774e-07
-1.60216e-06
-4.64733e-07
-3.92555e-07
9.20239e-07
-1.37642e-06
2.65173e-06
-2.76931e-06
4.00882e-06
-4.39695e-06
4.87047e-06
-6.09665e-06
5.21364e-06
-7.72221e-06
5.06614e-06
-9.14738e-06
4.48427e-06
-1.02679e-05
3.53978e-06
-1.10029e-05
2.31352e-06
-1.12964e-05
8.94365e-07
-1.11195e-05
-6.18981e-07
-1.0474e-05
-2.11591e-06
-9.39559e-06
-3.47384e-06
-7.95751e-06
-4.56219e-06
-6.27219e-06
-5.25206e-06
-4.48868e-06
-5.43286e-06
-2.78432e-06
-5.03503e-06
-1.34974e-06
-4.05553e-06
-3.68947e-07
-2.58295e-06
-8.33681e-07
-4.83615e-07
1.40386e-06
-1.67848e-06
3.84659e-06
-3.34512e-06
5.67546e-06
-5.26571e-06
6.79106e-06
-7.24814e-06
7.19607e-06
-9.12805e-06
6.94606e-06
-1.07688e-05
6.12497e-06
-1.206e-05
4.831e-06
-1.29167e-05
3.1702e-06
-1.32786e-05
1.25631e-06
-1.31118e-05
-7.85778e-07
-1.24117e-05
-2.81606e-06
-1.1208e-05
-4.6775e-06
-9.57114e-06
-6.19906e-06
-7.61717e-06
-7.20603e-06
-5.51003e-06
-7.53999e-06
-3.45694e-06
-7.08812e-06
-1.69491e-06
-5.81756e-06
-4.68256e-07
-3.80961e-06
-1.30194e-06
-5.72699e-07
1.97656e-06
-1.97412e-06
5.24801e-06
-3.90692e-06
7.60826e-06
-6.10848e-06
8.99261e-06
-8.35759e-06
9.44518e-06
-1.04741e-05
9.06255e-06
-1.23146e-05
7.96549e-06
-1.37671e-05
6.2835e-06
-1.47459e-05
4.14898e-06
-1.51885e-05
1.69895e-06
-1.50555e-05
-9.18838e-07
-1.43329e-05
-3.53857e-06
-1.30394e-05
-5.97101e-06
-1.1235e-05
-8.00348e-06
-9.03216e-06
-9.40888e-06
-6.60458e-06
-9.96757e-06
-4.18902e-06
-9.50368e-06
-2.07491e-06
-7.93167e-06
-5.78417e-07
-5.3061e-06
-1.88036e-06
-6.63225e-07
2.63978e-06
-2.27053e-06
6.85531e-06
-4.462e-06
9.79973e-06
-6.92796e-06
1.14586e-05
-9.41922e-06
1.19364e-05
-1.17438e-05
1.13871e-05
-1.37572e-05
9.9789e-06
-1.53516e-05
7.87791e-06
-1.64458e-05
5.24324e-06
-1.69787e-05
2.23176e-06
-1.69057e-05
-9.91816e-07
-1.62015e-05
-4.24275e-06
-1.48672e-05
-7.30534e-06
-1.29434e-05
-9.92723e-06
-1.05283e-05
-1.1824e-05
-7.79574e-06
-1.27001e-05
-5.00763e-06
-1.22918e-05
-2.51068e-06
-1.04286e-05
-7.08132e-07
-7.10865e-06
-2.58849e-06
-7.58499e-07
3.39828e-06
-2.57423e-06
8.67104e-06
-5.01447e-06
1.224e-05
-7.7183e-06
1.41624e-05
-1.04107e-05
1.46289e-05
-1.28944e-05
1.38707e-05
-1.50324e-05
1.21169e-05
-1.67297e-05
9.57529e-06
-1.79176e-05
6.43113e-06
-1.85414e-05
2.85559e-06
-1.85547e-05
-9.78575e-07
-1.7919e-05
-4.87844e-06
-1.66119e-05
-8.61239e-06
-1.46437e-05
-1.18955e-05
-1.20826e-05
-1.43851e-05
-9.08644e-06
-1.56963e-05
-5.93096e-06
-1.54473e-05
-3.02117e-06
-1.33384e-05
-8.66215e-07
-9.2636e-06
-3.45471e-06
-8.63087e-07
4.26137e-06
-2.89338e-06
1.07013e-05
-5.56694e-06
1.49135e-05
-8.46509e-06
1.70606e-05
-1.12913e-05
1.74551e-05
-1.38535e-05
1.64329e-05
-1.60348e-05
1.42982e-05
-1.77658e-05
1.13063e-05
-1.90006e-05
7.66593e-06
-1.96998e-05
3.55483e-06
-1.98201e-05
-8.58312e-07
-1.9311e-05
-5.38754e-06
-1.81217e-05
-9.80168e-06
-1.62195e-05
-1.37977e-05
-1.36228e-05
-1.69817e-05
-1.04483e-05
-1.88708e-05
-6.96299e-06
-1.89326e-05
-3.62261e-06
-1.66788e-05
-1.06244e-06
-1.18238e-05
-4.51715e-06
-9.85245e-07
5.24661e-06
-3.24175e-06
1.29578e-05
-6.12323e-06
1.7795e-05
-9.14508e-06
2.00824e-05
-1.19984e-05
2.03084e-05
-1.4513e-05
1.89475e-05
-1.66106e-05
1.63958e-05
-1.82637e-05
1.29593e-05
-1.94635e-05
8.86573e-06
-2.0197e-05
4.2884e-06
-2.04323e-05
-6.23007e-07
-2.01113e-05
-5.70859e-06
-1.91527e-05
-1.07603e-05
-1.74696e-05
-1.54807e-05
-1.50073e-05
-1.9444e-05
-1.18061e-05
-2.2072e-05
-8.08556e-06
-2.26532e-05
-4.32766e-06
-2.04367e-05
-1.30909e-06
-1.48423e-05
-5.82624e-06
-1.14095e-06
6.38756e-06
-3.64384e-06
1.54607e-05
-6.68985e-06
2.0841e-05
-9.722e-06
2.31146e-05
-1.24383e-05
2.30248e-05
-1.47177e-05
2.12268e-05
-1.65455e-05
1.82236e-05
-1.79567e-05
1.43705e-05
-1.89955e-05
9.90446e-06
-1.96881e-05
4.98101e-06
-2.00247e-05
-2.86361e-07
-1.99481e-05
-5.78521e-06
-1.93502e-05
-1.13582e-05
-1.80838e-05
-1.67472e-05
-1.59983e-05
-2.15294e-05
-1.30146e-05
-2.50558e-05
-9.2445e-06
-2.64233e-05
-5.14265e-06
-2.45385e-05
-1.62346e-06
-1.83615e-05
-7.4497e-06
-1.36044e-06
7.748e-06
-4.13994e-06
1.82402e-05
-7.27109e-06
2.39722e-05
-1.01308e-05
2.59742e-05
-1.24641e-05
2.53581e-05
-1.42413e-05
2.3004e-05
-1.55442e-05
1.95265e-05
-1.6492e-05
1.53183e-05
-1.71964e-05
1.06088e-05
-1.77341e-05
5.51874e-06
-1.81287e-05
1.0825e-07
-1.83361e-05
-5.57784e-06
-1.82331e-05
-1.14612e-05
-1.76168e-05
-1.73635e-05
-1.62277e-05
-2.29185e-05
-1.38226e-05
-2.74609e-05
-1.03242e-05
-2.99217e-05
-6.05996e-06
-2.88027e-05
-2.03166e-06
-2.23898e-05
-9.48135e-06
-1.69815e-06
9.44614e-06
-4.78538e-06
2.13275e-05
-7.84506e-06
2.70318e-05
-1.02342e-05
2.83634e-05
-1.18241e-05
2.6948e-05
-1.27384e-05
2.39183e-05
-1.31922e-05
1.99803e-05
-1.34063e-05
1.55324e-05
-1.35661e-05
1.07686e-05
-1.38026e-05
5.75526e-06
-1.418e-05
4.85575e-07
-1.46808e-05
-5.07698e-06
-1.51882e-05
-1.09538e-05
-1.5466e-05
-1.70857e-05
-1.5155e-05
-2.32295e-05
-1.38193e-05
-2.87966e-05
-1.10996e-05
-3.26414e-05
-7.03665e-06
-3.28656e-05
-2.57232e-06
-2.68542e-05
-1.20537e-05
-2.24283e-06
1.1689e-05
-5.62453e-06
2.47092e-05
-8.28852e-06
2.96958e-05
-9.7201e-06
2.9795e-05
-1.00573e-05
2.72852e-05
-9.65602e-06
2.35171e-05
-8.8931e-06
1.92174e-05
-8.08995e-06
1.47293e-05
-7.49325e-06
1.01719e-05
-7.27592e-06
5.53793e-06
-7.53879e-06
7.48455e-07
-8.30247e-06
-4.3133e-06
-9.48452e-06
-9.77172e-06
-1.08607e-05
-1.57096e-05
-1.20202e-05
-2.20699e-05
-1.23521e-05
-2.84648e-05
-1.11441e-05
-3.38494e-05
-7.93481e-06
-3.6075e-05
-3.2904e-06
-3.14986e-05
-1.53441e-05
-3.10307e-06
1.4792e-05
-6.57499e-06
2.81811e-05
-8.17558e-06
3.12964e-05
-7.87837e-06
2.94978e-05
-6.29909e-06
2.57059e-05
-4.09032e-06
2.13083e-05
-1.77831e-06
1.69054e-05
2.56384e-07
1.26946e-05
1.75105e-06
8.67726e-06
2.52694e-06
4.76204e-06
2.46719e-06
8.08204e-07
1.51289e-06
-3.359e-06
-3.17287e-07
-7.94155e-06
-2.87602e-06
-1.31509e-05
-5.8005e-06
-1.91454e-05
-8.40756e-06
-2.58577e-05
-9.65338e-06
-3.26035e-05
-8.36256e-06
-3.73658e-05
-4.18153e-06
-3.56796e-05
-1.95256e-05
-4.28417e-06
1.90762e-05
-7.04676e-06
3.09437e-05
-6.29321e-06
3.05429e-05
-3.17154e-06
2.63761e-05
1.02742e-06
2.1507e-05
5.40011e-06
1.69356e-05
9.38266e-06
1.29228e-05
1.2644e-05
9.43323e-06
1.49904e-05
6.33091e-06
1.62976e-05
3.45481e-06
1.64709e-05
6.34887e-07
1.54282e-05
-2.31626e-06
1.31074e-05
-5.62083e-06
9.51171e-06
-9.55512e-06
4.81411e-06
-1.44478e-05
-4.50974e-07
-2.05926e-05
-5.13212e-06
-2.79224e-05
-7.31028e-06
-3.51876e-05
-4.99843e-06
-3.79915e-05
-2.4524e-05
-5.22225e-06
2.42985e-05
-4.87118e-06
3.05926e-05
4.03527e-07
2.52682e-05
7.48384e-06
1.92958e-05
1.45957e-05
1.43951e-05
2.09371e-05
1.05942e-05
2.61813e-05
7.67865e-06
3.02222e-05
5.39226e-06
3.30398e-05
3.51335e-06
3.46269e-05
1.86766e-06
3.49516e-05
3.10168e-07
3.39374e-05
-1.30203e-06
3.14532e-05
-3.13661e-06
2.73272e-05
-5.42916e-06
2.1413e-05
-8.53361e-06
1.37808e-05
-1.29603e-05
5.14563e-06
-1.92873e-05
-2.37935e-06
-2.76627e-05
-4.75449e-06
-3.56163e-05
-2.92785e-05
-2.15967e-06
2.64581e-05
6.86707e-06
2.15659e-05
1.87813e-05
1.33539e-05
2.95279e-05
8.54921e-06
3.82767e-05
5.64629e-06
4.50915e-05
3.77947e-06
5.02274e-05
2.54276e-06
5.39364e-05
1.68319e-06
5.641e-05
1.03979e-06
5.77653e-05
5.12367e-07
5.8041e-05
3.44501e-08
5.71944e-05
-4.55384e-07
5.50777e-05
-1.01991e-06
5.14123e-05
-1.76384e-06
4.57527e-05
-2.87398e-06
3.75045e-05
-4.7121e-06
2.61885e-05
-7.97124e-06
1.24035e-05
-1.38777e-05
4.50802e-07
-2.36636e-05
-2.88277e-05
2.64581e-05
4.8024e-05
6.13779e-05
6.99272e-05
7.55735e-05
7.93529e-05
8.18957e-05
8.35789e-05
8.46187e-05
8.5131e-05
8.51655e-05
8.47101e-05
8.36902e-05
8.19264e-05
7.90524e-05
7.43403e-05
6.6369e-05
5.24913e-05
2.88277e-05
)
;

boundaryField
{
    movingWall
    {
        type            calculated;
        value           uniform 0;
    }
    fixedWalls
    {
        type            calculated;
        value           uniform 0;
    }
    frontAndBack
    {
        type            empty;
        value           nonuniform List<scalar> 0();
    }
}


// ************************************************************************* //
