/*--------------------------------*- C++ -*----------------------------------*\
  =========                 |
  \\      /  F ield         | OpenFOAM: The Open Source CFD Toolbox
   \\    /   O peration     | Website:  https://openfoam.org
    \\  /    A nd           | Version:  8
     \\/     M anipulation  |
\*---------------------------------------------------------------------------*/
FoamFile
{
    version     2.0;
    format      ascii;
    class       surfaceScalarField;
    location    "0.5";
    object      phi;
}
// * * * * * * * * * * * * * * * * * * * * * * * * * * * * * * * * * * * * * //

dimensions      [0 3 -1 0 0 0 0];

internalField   nonuniform List<scalar> 
760
(
2.99082e-08
-2.99295e-08
-5.2434e-08
8.23425e-08
-2.55187e-07
2.02753e-07
-5.41303e-07
2.86116e-07
-8.6828e-07
3.26976e-07
-1.19692e-06
3.28634e-07
-1.49367e-06
2.96756e-07
-1.73118e-06
2.37505e-07
-1.88815e-06
1.56975e-07
-1.94963e-06
6.14875e-08
-1.90781e-06
-4.18243e-08
-1.76327e-06
-1.44543e-07
-1.52642e-06
-2.36853e-07
-1.2185e-06
-3.07917e-07
-8.71671e-07
-3.46834e-07
-5.27429e-07
-3.44242e-07
-2.32837e-07
-2.9459e-07
-3.39134e-08
-1.98923e-07
3.69192e-08
-7.08316e-08
3.69194e-08
-7.87229e-08
4.87926e-08
-4.04359e-07
4.07978e-07
-9.62505e-07
7.60899e-07
-1.6847e-06
1.00831e-06
-2.48604e-06
1.12831e-06
-3.2819e-06
1.12449e-06
-3.99602e-06
1.01087e-06
-4.56426e-06
8.0574e-07
-4.93649e-06
5.29208e-07
-5.07826e-06
2.03257e-07
-4.97285e-06
-1.47228e-07
-4.6238e-06
-4.93594e-07
-4.0572e-06
-8.03452e-07
-3.32294e-06
-1.04218e-06
-2.49356e-06
-1.17621e-06
-1.65962e-06
-1.17819e-06
-9.20003e-07
-1.0342e-06
-3.66691e-07
-7.52235e-07
-6.20884e-08
-3.75434e-07
-2.51681e-08
-2.08184e-07
2.56976e-07
-7.96029e-07
9.95823e-07
-1.69224e-06
1.65711e-06
-2.79394e-06
2.11002e-06
-3.98524e-06
2.31962e-06
-5.15181e-06
2.29106e-06
-6.18989e-06
2.04895e-06
-7.01153e-06
1.62738e-06
-7.54781e-06
1.06549e-06
-7.75155e-06
4.06989e-07
-7.60015e-06
-2.98625e-07
-7.09881e-06
-9.94926e-07
-6.28329e-06
-1.61897e-06
-5.22121e-06
-2.10427e-06
-4.01041e-06
-2.38701e-06
-2.77282e-06
-2.41578e-06
-1.64236e-06
-2.16466e-06
-7.46767e-07
-1.64783e-06
-1.84277e-07
-9.37924e-07
-2.09444e-07
-3.26233e-07
5.83208e-07
-1.16796e-06
1.83755e-06
-2.38826e-06
2.87741e-06
-3.84186e-06
3.56361e-06
-5.38242e-06
3.86018e-06
-6.87183e-06
3.78047e-06
-8.187e-06
3.36412e-06
-9.22425e-06
2.66462e-06
-9.90234e-06
1.74359e-06
-1.01653e-05
6.69929e-07
-9.98543e-06
-4.78479e-07
-9.36708e-06
-1.61328e-06
-8.34992e-06
-2.63613e-06
-7.01121e-06
-3.44298e-06
-5.46509e-06
-3.93313e-06
-3.85707e-06
-4.02381e-06
-2.35223e-06
-3.6695e-06
-1.11707e-06
-2.88299e-06
-2.97391e-07
-1.75761e-06
-5.06835e-07
-4.33038e-07
1.01625e-06
-1.51578e-06
2.9203e-06
-3.0466e-06
4.40822e-06
-4.83419e-06
5.35121e-06
-6.70086e-06
5.72685e-06
-8.48717e-06
5.56678e-06
-1.00553e-05
4.93223e-06
-1.12909e-05
3.90023e-06
-1.21046e-05
2.55732e-06
-1.24339e-05
9.99182e-07
-1.22455e-05
-6.66816e-07
-1.15399e-05
-2.31894e-06
-1.0355e-05
-3.82096e-06
-8.77125e-06
-5.02677e-06
-6.91263e-06
-5.79174e-06
-4.9446e-06
-5.99184e-06
-3.06428e-06
-5.54983e-06
-1.4832e-06
-4.46407e-06
-4.04368e-07
-2.83644e-06
-9.11203e-07
-5.32904e-07
1.54915e-06
-1.84635e-06
4.23374e-06
-3.67613e-06
6.238e-06
-5.78371e-06
7.45878e-06
-7.9597e-06
7.90283e-06
-1.00252e-05
7.63231e-06
-1.18312e-05
6.73825e-06
-1.32568e-05
5.32583e-06
-1.42079e-05
3.50833e-06
-1.46166e-05
1.40794e-06
-1.44437e-05
-8.39733e-07
-1.36819e-05
-3.08077e-06
-1.23621e-05
-5.14073e-06
-1.05607e-05
-6.82819e-06
-8.40557e-06
-7.94686e-06
-6.07874e-06
-8.31867e-06
-3.81093e-06
-7.81763e-06
-1.8659e-06
-6.4091e-06
-5.14189e-07
-4.18815e-06
-1.42539e-06
-6.29972e-07
2.17912e-06
-2.16792e-06
5.7717e-06
-4.28681e-06
8.35688e-06
-6.69991e-06
9.87189e-06
-9.1668e-06
1.03697e-05
-1.14918e-05
9.95735e-06
-1.35189e-05
8.76533e-06
-1.51251e-05
6.93205e-06
-1.62153e-05
4.59853e-06
-1.67189e-05
1.91147e-06
-1.65895e-05
-9.69096e-07
-1.58091e-05
-3.86119e-06
-1.43951e-05
-6.55472e-06
-1.24117e-05
-8.81157e-06
-9.98228e-06
-1.03763e-05
-7.29955e-06
-1.10014e-05
-4.62759e-06
-1.04896e-05
-2.28948e-06
-8.74721e-06
-6.36725e-07
-5.8409e-06
-2.06212e-06
-7.27748e-07
2.90687e-06
-2.48772e-06
7.53168e-06
-4.88564e-06
1.07548e-05
-7.5846e-06
1.25709e-05
-1.03146e-05
1.30997e-05
-1.28676e-05
1.25104e-05
-1.50866e-05
1.09843e-05
-1.68532e-05
8.6986e-06
-1.80767e-05
5.82205e-06
-1.86872e-05
2.52196e-06
-1.86324e-05
-1.0239e-06
-1.78803e-05
-4.61323e-06
-1.64282e-05
-8.00678e-06
-1.43178e-05
-1.0922e-05
-1.16555e-05
-1.30386e-05
-8.63376e-06
-1.40231e-05
-5.54519e-06
-1.35782e-05
-2.77783e-06
-1.15146e-05
-7.81871e-07
-7.83685e-06
-2.84399e-06
-8.2962e-07
3.73649e-06
-2.81234e-06
9.51439e-06
-5.47634e-06
1.34188e-05
-8.43054e-06
1.55251e-05
-1.13779e-05
1.6047e-05
-1.41051e-05
1.52376e-05
-1.64634e-05
1.33426e-05
-1.83483e-05
1.05835e-05
-1.9682e-05
7.15584e-06
-2.04016e-05
3.24152e-06
-2.04516e-05
-9.73915e-07
-1.9785e-05
-5.27986e-06
-1.8372e-05
-9.41977e-06
-1.62192e-05
-1.30748e-05
-1.33988e-05
-1.5859e-05
-1.00846e-05
-1.73374e-05
-6.58436e-06
-1.70784e-05
-3.35251e-06
-1.47464e-05
-9.59674e-07
-1.02297e-05
-3.80366e-06
-9.4039e-07
4.67688e-06
-3.15035e-06
1.17244e-05
-6.06152e-06
1.633e-05
-9.22197e-06
1.86855e-05
-1.23124e-05
1.91375e-05
-1.51255e-05
1.80506e-05
-1.75343e-05
1.57514e-05
-1.94615e-05
1.25107e-05
-2.08543e-05
8.54867e-06
-2.16658e-05
4.05302e-06
-2.18437e-05
-7.9604e-07
-2.13272e-05
-5.79634e-06
-2.00545e-05
-1.06925e-05
-1.79835e-05
-1.51458e-05
-1.51296e-05
-1.87129e-05
-1.1619e-05
-2.08479e-05
-7.74919e-06
-2.09482e-05
-4.03186e-06
-1.84638e-05
-1.18124e-06
-1.30803e-05
-4.9849e-06
-1.06899e-06
5.74587e-06
-3.51688e-06
1.41722e-05
-6.64598e-06
1.94591e-05
-9.93494e-06
2.19745e-05
-1.30518e-05
2.22544e-05
-1.58132e-05
2.0812e-05
-1.81332e-05
1.80715e-05
-1.99799e-05
1.43573e-05
-2.13404e-05
9.90918e-06
-2.21967e-05
4.90936e-06
-2.25093e-05
-4.83464e-07
-2.22092e-05
-6.09643e-06
-2.12011e-05
-1.17006e-05
-1.93823e-05
-1.69645e-05
-1.66855e-05
-2.14097e-05
-1.31499e-05
-2.43835e-05
-9.01767e-06
-2.50805e-05
-4.82956e-06
-2.26519e-05
-1.46036e-06
-1.64495e-05
-6.44526e-06
-1.23298e-06
6.97884e-06
-3.93955e-06
1.68788e-05
-7.23906e-06
2.27586e-05
-1.05336e-05
2.52691e-05
-1.34991e-05
2.52198e-05
-1.60042e-05
2.33171e-05
-1.80315e-05
2.00987e-05
-1.9616e-05
1.59418e-05
-2.08024e-05
1.10956e-05
-2.16162e-05
5.72319e-06
-2.20433e-05
-5.64223e-08
-2.2017e-05
-6.12271e-06
-2.14137e-05
-1.23039e-05
-2.00645e-05
-1.83137e-05
-1.77951e-05
-2.36791e-05
-1.45092e-05
-2.76694e-05
-1.03255e-05
-2.92642e-05
-5.75117e-06
-2.72261e-05
-1.81623e-06
-2.03845e-05
-8.26149e-06
-1.46582e-06
8.44466e-06
-4.46455e-06
1.98775e-05
-7.85024e-06
2.61443e-05
-1.09543e-05
2.83732e-05
-1.35027e-05
2.77682e-05
-1.54614e-05
2.52758e-05
-1.69158e-05
2.15531e-05
-1.79918e-05
1.70178e-05
-1.88081e-05
1.19119e-05
-1.94465e-05
6.36155e-06
-1.99316e-05
4.28679e-07
-2.02137e-05
-5.84059e-06
-2.01556e-05
-1.2362e-05
-1.95293e-05
-1.894e-05
-1.80403e-05
-2.5168e-05
-1.54084e-05
-3.03014e-05
-1.15367e-05
-3.31359e-05
-6.78472e-06
-3.19781e-05
-2.27732e-06
-2.48919e-05
-1.05388e-05
-1.82802e-06
1.02727e-05
-5.15661e-06
2.32061e-05
-8.46408e-06
2.94517e-05
-1.10592e-05
3.09683e-05
-1.28017e-05
2.95106e-05
-1.38211e-05
2.62953e-05
-1.43459e-05
2.20779e-05
-1.46119e-05
1.72839e-05
-1.48192e-05
1.21192e-05
-1.51109e-05
6.65317e-06
-1.55588e-05
8.76578e-07
-1.61469e-05
-5.25248e-06
-1.67489e-05
-1.176e-05
-1.71047e-05
-1.85842e-05
-1.68129e-05
-2.54598e-05
-1.53798e-05
-3.17345e-05
-1.23905e-05
-3.61252e-05
-7.87586e-06
-3.64927e-05
-2.88499e-06
-2.98827e-05
-1.34238e-05
-2.41883e-06
1.26915e-05
-6.07209e-06
2.68594e-05
-8.95938e-06
3.2339e-05
-1.05236e-05
3.25326e-05
-1.0909e-05
2.9896e-05
-1.04943e-05
2.58805e-05
-9.68249e-06
2.12661e-05
-8.81993e-06
1.64213e-05
-8.17543e-06
1.14747e-05
-7.94066e-06
6.4184e-06
-8.2312e-06
1.16712e-06
-9.07657e-06
-4.40712e-06
-1.03936e-05
-1.04429e-05
-1.19413e-05
-1.70366e-05
-1.32678e-05
-2.41333e-05
-1.36899e-05
-3.13124e-05
-1.23999e-05
-3.74152e-05
-8.86038e-06
-4.00322e-05
-3.68525e-06
-3.50579e-05
-1.7109e-05
-3.36199e-06
1.60535e-05
-7.13446e-06
3.06319e-05
-8.88879e-06
3.40934e-05
-8.58889e-06
3.22327e-05
-6.89276e-06
2.81999e-05
-4.50022e-06
2.3488e-05
-1.97867e-06
1.87445e-05
2.57875e-07
1.41848e-05
1.91974e-06
9.81282e-06
2.80574e-06
5.5324e-06
2.78007e-06
1.19279e-06
1.76842e-06
-3.39546e-06
-2.19897e-07
-8.45462e-06
-3.03437e-06
-1.42221e-05
-6.28434e-06
-2.08833e-05
-9.21667e-06
-2.83801e-05
-1.06626e-05
-3.59693e-05
-9.28823e-06
-4.14066e-05
-4.66491e-06
-3.96812e-05
-2.1774e-05
-4.67423e-06
2.07277e-05
-7.71776e-06
3.36754e-05
-6.94108e-06
3.33167e-05
-3.57756e-06
2.88691e-05
9.80708e-07
2.36416e-05
5.75651e-06
1.87122e-05
1.01353e-05
1.43657e-05
1.37513e-05
1.05687e-05
1.63859e-05
7.17822e-06
1.78953e-05
4.023e-06
1.8167e-05
9.21075e-07
1.71014e-05
-2.32983e-06
1.46192e-05
-5.97243e-06
1.07099e-05
-1.03128e-05
5.54864e-06
-1.5722e-05
-2.88499e-07
-2.25429e-05
-5.53013e-06
-3.07276e-05
-8.02879e-06
-3.8908e-05
-5.53538e-06
-4.21746e-05
-2.73093e-05
-5.75762e-06
2.64854e-05
-5.45875e-06
3.33765e-05
2.32629e-07
2.76253e-05
7.9285e-06
2.11733e-05
1.56995e-05
1.58706e-05
2.26684e-05
1.17433e-05
2.84701e-05
8.56406e-06
3.29786e-05
6.06019e-06
3.61624e-05
3.99445e-06
3.80057e-05
2.17972e-06
3.84668e-05
4.59921e-07
3.74559e-05
-1.31886e-06
3.48224e-05
-3.33897e-06
3.03681e-05
-5.85855e-06
2.39165e-05
-9.27043e-06
1.55236e-05
-1.41499e-05
5.95885e-06
-2.11629e-05
-2.44485e-06
-3.05043e-05
-5.18965e-06
-3.94298e-05
-3.2499e-05
-2.49906e-06
2.89844e-05
7.28063e-06
2.35968e-05
2.02715e-05
1.46345e-05
3.20323e-05
9.4124e-06
4.16515e-05
6.25146e-06
4.91865e-05
4.20832e-06
5.49025e-05
2.84801e-06
5.90643e-05
1.89841e-06
6.18737e-05
1.18506e-06
6.34543e-05
5.9908e-07
6.38466e-05
6.76929e-08
6.30022e-05
-4.74498e-07
6.07597e-05
-1.09643e-06
5.68123e-05
-1.91117e-06
5.06648e-05
-3.12295e-06
4.16475e-05
-5.13263e-06
2.92037e-05
-8.71914e-06
1.39627e-05
-1.52633e-05
6.55314e-07
-2.61224e-05
-3.18437e-05
2.89844e-05
5.25812e-05
6.72157e-05
7.66281e-05
8.28796e-05
8.70879e-05
8.99359e-05
9.18343e-05
9.30194e-05
9.36185e-05
9.36862e-05
9.32117e-05
9.21152e-05
9.02041e-05
8.70811e-05
8.19485e-05
7.32293e-05
5.7966e-05
3.18437e-05
)
;

boundaryField
{
    movingWall
    {
        type            calculated;
        value           uniform 0;
    }
    fixedWalls
    {
        type            calculated;
        value           uniform 0;
    }
    frontAndBack
    {
        type            empty;
        value           nonuniform List<scalar> 0();
    }
}


// ************************************************************************* //
