/*--------------------------------*- C++ -*----------------------------------*\
  =========                 |
  \\      /  F ield         | OpenFOAM: The Open Source CFD Toolbox
   \\    /   O peration     | Website:  https://openfoam.org
    \\  /    A nd           | Version:  8
     \\/     M anipulation  |
\*---------------------------------------------------------------------------*/
FoamFile
{
    version     2.0;
    format      ascii;
    class       volVectorField;
    location    "0.5";
    object      U;
}
// * * * * * * * * * * * * * * * * * * * * * * * * * * * * * * * * * * * * * //

dimensions      [0 1 -1 0 0 0 0];

internalField   nonuniform List<vector> 
400
(
(0.000543295 -0.000538814 0)
(0.00025746 0.000264529 0)
(-0.00267113 0.00124549 0)
(-0.00771648 0.00192657 0)
(-0.0140139 0.00226514 0)
(-0.0207242 0.0023025 0)
(-0.0271104 0.00209249 0)
(-0.0325596 0.00168572 0)
(-0.0365831 0.00112676 0)
(-0.0388158 0.000458698 0)
(-0.0390258 -0.000270168 0)
(-0.0371357 -0.00100108 0)
(-0.0332515 -0.00166261 0)
(-0.0276887 -0.00217266 0)
(-0.0209856 -0.00244504 0)
(-0.013892 -0.00240132 0)
(-0.00731705 -0.0019886 0)
(-0.00222736 -0.00120379 0)
(0.000525626 -0.000160893 0)
(0.000612669 0.000597604 0)
(-0.00020617 -0.000314131 0)
(-0.00366433 0.00369852 0)
(-0.0126957 0.00796859 0)
(-0.0259058 0.0109907 0)
(-0.0415495 0.0124891 0)
(-0.0579029 0.0125354 0)
(-0.0733373 0.011316 0)
(-0.0864327 0.00905287 0)
(-0.0960376 0.0059771 0)
(-0.101297 0.0023341 0)
(-0.10169 -0.00159881 0)
(-0.097074 -0.00549808 0)
(-0.0877367 -0.00899161 0)
(-0.0744384 -0.0116746 0)
(-0.0584172 -0.0131469 0)
(-0.0413385 -0.013074 0)
(-0.0251468 -0.011274 0)
(-0.0118125 -0.00782537 0)
(-0.00308566 -0.00327678 0)
(-3.66462e-05 0.000598396 0)
(-0.00121908 0.00254848 0)
(-0.00833967 0.0127988 0)
(-0.0235312 0.0225099 0)
(-0.0441397 0.029302 0)
(-0.0676495 0.0325603 0)
(-0.0917615 0.0323484 0)
(-0.114279 0.0290325 0)
(-0.133259 0.0231152 0)
(-0.147121 0.0151655 0)
(-0.154688 0.00581348 0)
(-0.155252 -0.00422649 0)
(-0.148623 -0.0141363 0)
(-0.135203 -0.0229985 0)
(-0.116024 -0.0298401 0)
(-0.0927605 -0.0337257 0)
(-0.0676555 -0.0339037 0)
(-0.0433217 -0.0300045 0)
(-0.0224202 -0.0222708 0)
(-0.00754256 -0.0118866 0)
(-0.000966822 -0.00185088 0)
(-0.00211792 0.00792747 0)
(-0.0127347 0.0271823 0)
(-0.033907 0.0438238 0)
(-0.0615035 0.0550739 0)
(-0.0921704 0.060155 0)
(-0.123115 0.0592081 0)
(-0.151723 0.0528463 0)
(-0.175705 0.0419252 0)
(-0.193194 0.0274369 0)
(-0.202807 0.0104944 0)
(-0.203692 -0.00764169 0)
(-0.195599 -0.0255381 0)
(-0.178956 -0.0416015 0)
(-0.154927 -0.0541522 0)
(-0.125441 -0.0615794 0)
(-0.0931406 -0.0625842 0)
(-0.0611755 -0.0565001 0)
(-0.0328745 -0.0436476 0)
(-0.0118206 -0.0257372 0)
(-0.00179296 -0.00668163 0)
(-0.00290213 0.01555 0)
(-0.0167827 0.046485 0)
(-0.0436895 0.0714083 0)
(-0.0779672 0.0875788 0)
(-0.115373 0.0943395 0)
(-0.152638 0.0920849 0)
(-0.18681 0.0817859 0)
(-0.215353 0.0647255 0)
(-0.236219 0.0423738 0)
(-0.24788 0.0163727 0)
(-0.249366 -0.0114261 0)
(-0.240327 -0.0389235 0)
(-0.221129 -0.0637821 0)
(-0.192939 -0.083521 0)
(-0.157803 -0.0957243 0)
(-0.118652 -0.0983796 0)
(-0.0791358 -0.0903299 0)
(-0.043323 -0.0717614 0)
(-0.0159672 -0.044687 0)
(-0.0025345 -0.0136937 0)
(-0.00362046 0.0252278 0)
(-0.0205989 0.0704852 0)
(-0.0530274 0.105065 0)
(-0.0937332 0.126597 0)
(-0.137565 0.134846 0)
(-0.180789 0.130687 0)
(-0.220178 0.115597 0)
(-0.253027 0.0913739 0)
(-0.277189 0.0600087 0)
(-0.291044 0.0236838 0)
(-0.293511 -0.0151598 0)
(-0.2841 -0.0537548 0)
(-0.263018 -0.0889912 0)
(-0.231304 -0.117508 0)
(-0.190979 -0.135936 0)
(-0.145157 -0.141323 0)
(-0.0979625 -0.131733 0)
(-0.0542922 -0.106908 0)
(-0.0202719 -0.0688943 0)
(-0.00327805 -0.0228425 0)
(-0.00431762 0.0368635 0)
(-0.024315 0.0990245 0)
(-0.0621111 0.144604 0)
(-0.109003 0.171888 0)
(-0.158923 0.181386 0)
(-0.207707 0.174713 0)
(-0.251922 0.154034 0)
(-0.288793 0.121759 0)
(-0.316161 0.0804252 0)
(-0.332377 0.0327365 0)
(-0.336267 -0.018327 0)
(-0.327164 -0.0693795 0)
(-0.305017 -0.116557 0)
(-0.270585 -0.155565 0)
(-0.225688 -0.181923 0)
(-0.173466 -0.191457 0)
(-0.118441 -0.181057 0)
(-0.0664 -0.149586 0)
(-0.025077 -0.0987825 0)
(-0.00411758 -0.0342805 0)
(-0.00503113 0.0504366 0)
(-0.0280495 0.132018 0)
(-0.071104 0.189835 0)
(-0.123886 0.223133 0)
(-0.179405 0.23353 0)
(-0.233129 0.223694 0)
(-0.281531 0.196684 0)
(-0.321899 0.155626 0)
(-0.352186 0.10362 0)
(-0.370813 0.0438296 0)
(-0.376564 -0.0203278 0)
(-0.368571 -0.0849634 0)
(-0.346432 -0.145542 0)
(-0.310449 -0.196838 0)
(-0.262004 -0.233114 0)
(-0.204009 -0.248645 0)
(-0.141201 -0.238641 0)
(-0.0802374 -0.200478 0)
(-0.0307326 -0.135063 0)
(-0.00514921 -0.0483611 0)
(-0.00579866 0.0659933 0)
(-0.03192 0.16945 0)
(-0.0801439 0.240541 0)
(-0.138386 0.279856 0)
(-0.198715 0.290584 0)
(-0.256342 0.276824 0)
(-0.30782 0.24278 0)
(-0.350693 0.192403 0)
(-0.383211 0.129348 0)
(-0.404018 0.0571397 0)
(-0.411946 -0.0205317 0)
(-0.405954 -0.0994685 0)
(-0.385209 -0.174642 0)
(-0.349366 -0.239983 0)
(-0.299059 -0.288422 0)
(-0.236591 -0.312343 0)
(-0.166551 -0.304639 0)
(-0.0962985 -0.260348 0)
(-0.0375901 -0.178713 0)
(-0.00647834 -0.0656383 0)
(-0.00667627 0.0836557 0)
(-0.036092 0.21137 0)
(-0.0893972 0.296421 0)
(-0.152427 0.341303 0)
(-0.216292 0.351405 0)
(-0.276133 0.332747 0)
(-0.328848 0.29097 0)
(-0.372516 0.230968 0)
(-0.405941 0.156918 0)
(-0.428203 0.0725604 0)
(-0.438348 -0.0183741 0)
(-0.43524 -0.111665 0)
(-0.417592 -0.202088 0)
(-0.384227 -0.282966 0)
(-0.334671 -0.345943 0)
(-0.270079 -0.38124 0)
(-0.194288 -0.378701 0)
(-0.114918 -0.329845 0)
(-0.04602 -0.230912 0)
(-0.00823709 -0.0868764 0)
(-0.00777126 0.103673 0)
(-0.0408618 0.257921 0)
(-0.0991479 0.357022 0)
(-0.165896 0.406265 0)
(-0.231284 0.414156 0)
(-0.290701 0.389277 0)
(-0.341792 0.339043 0)
(-0.383553 0.269394 0)
(-0.415675 0.184959 0)
(-0.437953 0.0894997 0)
(-0.449872 -0.0135103 0)
(-0.450365 -0.120209 0)
(-0.437744 -0.225616 0)
(-0.40989 -0.322871 0)
(-0.364852 -0.402614 0)
(-0.301971 -0.452804 0)
(-0.22341 -0.459501 0)
(-0.136175 -0.409167 0)
(-0.0564422 -0.292936 0)
(-0.0106151 -0.113087 0)
(-0.00930042 0.126546 0)
(-0.0467859 0.309412 0)
(-0.109897 0.421631 0)
(-0.178632 0.472831 0)
(-0.242409 0.475996 0)
(-0.297441 0.443081 0)
(-0.342706 0.383632 0)
(-0.378608 0.304684 0)
(-0.406115 0.211183 0)
(-0.426052 0.106659 0)
(-0.438613 -0.00601777 0)
(-0.443036 -0.123804 0)
(-0.437411 -0.242528 0)
(-0.418704 -0.355805 0)
(-0.383224 -0.453881 0)
(-0.327789 -0.522723 0)
(-0.251656 -0.544079 0)
(-0.159699 -0.497535 0)
(-0.0693628 -0.36597 0)
(-0.0139126 -0.145612 0)
(-0.0116936 0.153272 0)
(-0.0548602 0.366408 0)
(-0.122396 0.489056 0)
(-0.190207 0.537977 0)
(-0.247539 0.53263 0)
(-0.29243 0.489302 0)
(-0.326024 0.419937 0)
(-0.350712 0.332569 0)
(-0.369116 0.232214 0)
(-0.383362 0.121855 0)
(-0.394603 0.0033854 0)
(-0.402664 -0.121438 0)
(-0.405723 -0.249903 0)
(-0.400093 -0.37696 0)
(-0.380358 -0.493478 0)
(-0.340266 -0.584309 0)
(-0.274754 -0.626945 0)
(-0.184267 -0.592343 0)
(-0.0853852 -0.45076 0)
(-0.0186274 -0.186289 0)
(-0.0157671 0.185788 0)
(-0.0667199 0.429742 0)
(-0.137416 0.557084 0)
(-0.199172 0.596829 0)
(-0.242621 0.577687 0)
(-0.269299 0.521166 0)
(-0.283594 0.441554 0)
(-0.290428 0.347491 0)
(-0.294302 0.243619 0)
(-0.298729 0.131996 0)
(-0.30593 0.0132006 0)
(-0.316554 -0.112685 0)
(-0.329291 -0.244995 0)
(-0.340362 -0.380968 0)
(-0.343126 -0.513499 0)
(-0.328255 -0.628022 0)
(-0.285178 -0.698983 0)
(-0.206935 -0.687807 0)
(-0.105069 -0.546868 0)
(-0.0255679 -0.237681 0)
(-0.0229412 0.227633 0)
(-0.0846196 0.500125 0)
(-0.154633 0.621274 0)
(-0.200992 0.641462 0)
(-0.219268 0.60196 0)
(-0.217008 0.529746 0)
(-0.202924 0.440655 0)
(-0.184692 0.343002 0)
(-0.168491 0.240352 0)
(-0.158923 0.133407 0)
(-0.159075 0.0212177 0)
(-0.170477 -0.0979724 0)
(-0.192754 -0.225857 0)
(-0.222899 -0.362733 0)
(-0.254227 -0.505105 0)
(-0.27537 -0.641533 0)
(-0.270099 -0.746411 0)
(-0.221134 -0.772989 0)
(-0.128166 -0.651085 0)
(-0.0358428 -0.303255 0)
(-0.0351624 0.284984 0)
(-0.110168 0.57656 0)
(-0.168968 0.672314 0)
(-0.183062 0.658991 0)
(-0.159916 0.592731 0)
(-0.115937 0.50431 0)
(-0.0644652 0.408941 0)
(-0.0152102 0.312961 0)
(0.0249589 0.217896 0)
(0.0512682 0.122723 0)
(0.0604185 0.0249824 0)
(0.0502773 -0.0786805 0)
(0.0200288 -0.192102 0)
(-0.029076 -0.318828 0)
(-0.0921821 -0.460181 0)
(-0.158425 -0.610848 0)
(-0.208065 -0.750269 0)
(-0.212577 -0.82916 0)
(-0.150893 -0.7545 0)
(-0.050073 -0.387594 0)
(-0.0530891 0.368887 0)
(-0.138645 0.651541 0)
(-0.160308 0.689952 0)
(-0.11388 0.628231 0)
(-0.0292585 0.533328 0)
(0.0678002 0.433652 0)
(0.161612 0.339722 0)
(0.242931 0.253699 0)
(0.306308 0.174196 0)
(0.348373 0.0983975 0)
(0.36671 0.0227668 0)
(0.359238 -0.0568898 0)
(0.324066 -0.145592 0)
(0.259961 -0.249265 0)
(0.167833 -0.374004 0)
(0.0540269 -0.522859 0)
(-0.0640278 -0.686853 0)
(-0.151399 -0.826263 0)
(-0.158713 -0.836969 0)
(-0.0648924 -0.497162 0)
(-0.0662874 0.492411 0)
(-0.139663 0.696512 0)
(-0.0683866 0.63309 0)
(0.0773333 0.51796 0)
(0.23812 0.406354 0)
(0.38814 0.310983 0)
(0.516956 0.232614 0)
(0.620481 0.167857 0)
(0.697562 0.112524 0)
(0.747988 0.0627121 0)
(0.77134 0.0147871 0)
(0.766386 -0.0350471 0)
(0.730743 -0.0913605 0)
(0.660778 -0.16032 0)
(0.552243 -0.25047 0)
(0.402794 -0.372326 0)
(0.217661 -0.533288 0)
(0.0219469 -0.720805 0)
(-0.109465 -0.852666 0)
(-0.0603399 -0.628943 0)
(0.00531969 0.597645 0)
(0.0183454 0.625378 0)
(0.263911 0.452843 0)
(0.528879 0.316253 0)
(0.746036 0.221385 0)
(0.916672 0.155143 0)
(1.04814 0.108311 0)
(1.14609 0.0740371 0)
(1.21518 0.0474235 0)
(1.25874 0.0251028 0)
(1.27848 0.00458822 0)
(1.27436 -0.0163372 0)
(1.24439 -0.0403006 0)
(1.18403 -0.0711897 0)
(1.08543 -0.115639 0)
(0.936975 -0.185266 0)
(0.72249 -0.298726 0)
(0.427895 -0.477968 0)
(0.121146 -0.704162 0)
(0.0554111 -0.684312 0)
(0.647817 0.316796 0)
(0.847372 0.278544 0)
(1.19076 0.170152 0)
(1.44767 0.101087 0)
(1.60502 0.0612946 0)
(1.70622 0.0377749 0)
(1.77473 0.0235337 0)
(1.82111 0.0145376 0)
(1.8513 0.00840632 0)
(1.86879 0.00376608 0)
(1.87534 -0.000219482 0)
(1.8714 -0.00416014 0)
(1.85612 -0.00874793 0)
(1.82692 -0.0150523 0)
(1.77828 -0.0251922 0)
(1.6992 -0.0437164 0)
(1.56443 -0.080327 0)
(1.31674 -0.153704 0)
(0.940758 -0.279802 0)
(0.692216 -0.332671 0)
)
;

boundaryField
{
    movingWall
    {
        type            fixedValue;
        value           uniform (2.2 0 0);
    }
    fixedWalls
    {
        type            noSlip;
    }
    frontAndBack
    {
        type            empty;
    }
}


// ************************************************************************* //
