/*--------------------------------*- C++ -*----------------------------------*\
  =========                 |
  \\      /  F ield         | OpenFOAM: The Open Source CFD Toolbox
   \\    /   O peration     | Website:  https://openfoam.org
    \\  /    A nd           | Version:  8
     \\/     M anipulation  |
\*---------------------------------------------------------------------------*/
FoamFile
{
    version     2.0;
    format      ascii;
    class       volVectorField;
    location    "0.1";
    object      U;
}
// * * * * * * * * * * * * * * * * * * * * * * * * * * * * * * * * * * * * * //

dimensions      [0 1 -1 0 0 0 0];

internalField   nonuniform List<vector> 
400
(
(0.00109004 -0.00114114 0)
(0.000376792 0.00059825 0)
(-0.00598766 0.00266446 0)
(-0.0166826 0.00404409 0)
(-0.0299075 0.00472594 0)
(-0.0439846 0.00483137 0)
(-0.057503 0.00446968 0)
(-0.0692631 0.00371568 0)
(-0.0782333 0.00261941 0)
(-0.0835368 0.00123152 0)
(-0.084503 -0.000367945 0)
(-0.0807719 -0.00204839 0)
(-0.0724274 -0.00362164 0)
(-0.0601159 -0.00485481 0)
(-0.0451054 -0.0055033 0)
(-0.0292367 -0.00536186 0)
(-0.0147309 -0.00432665 0)
(-0.00383929 -0.00245973 0)
(0.00166615 -0.000126855 0)
(0.00145056 0.00140274 0)
(-0.000605039 -0.000466273 0)
(-0.00832347 0.00816324 0)
(-0.0278513 0.0170837 0)
(-0.0559877 0.0232284 0)
(-0.0890504 0.0262669 0)
(-0.123602 0.0264733 0)
(-0.156451 0.0242203 0)
(-0.184756 0.0198442 0)
(-0.20606 0.0136512 0)
(-0.218345 0.00599745 0)
(-0.220164 -0.00261327 0)
(-0.210854 -0.0114606 0)
(-0.190771 -0.0195985 0)
(-0.161492 -0.0259265 0)
(-0.125877 -0.0293464 0)
(-0.0879216 -0.0289951 0)
(-0.0522981 -0.0245223 0)
(-0.023595 -0.0163664 0)
(-0.00551856 -0.00616036 0)
(0.00023767 0.00184716 0)
(-0.00284022 0.00600258 0)
(-0.0185735 0.028066 0)
(-0.051418 0.0482929 0)
(-0.0953834 0.0621244 0)
(-0.145205 0.0687542 0)
(-0.196324 0.0685569 0)
(-0.244417 0.0622455 0)
(-0.285563 0.0505886 0)
(-0.316369 0.0343947 0)
(-0.334069 0.0146505 0)
(-0.336708 -0.00730244 0)
(-0.323413 -0.0296476 0)
(-0.294678 -0.0500976 0)
(-0.252609 -0.0660668 0)
(-0.20101 -0.0750292 0)
(-0.145214 -0.075044 0)
(-0.0915002 -0.065379 0)
(-0.0461441 -0.0471043 0)
(-0.0147829 -0.0237083 0)
(-0.00163228 -0.00265551 0)
(-0.0048562 0.018055 0)
(-0.028226 0.0594309 0)
(-0.0738965 0.0940248 0)
(-0.132697 0.116919 0)
(-0.19768 0.127278 0)
(-0.26337 0.125761 0)
(-0.324658 0.113529 0)
(-0.376917 0.0918857 0)
(-0.416138 0.0622704 0)
(-0.439025 0.0264644 0)
(-0.443204 -0.013149 0)
(-0.427508 -0.0534095 0)
(-0.39232 -0.0903901 0)
(-0.339884 -0.11967 0)
(-0.274488 -0.136907 0)
(-0.202385 -0.138697 0)
(-0.131226 -0.123608 0)
(-0.0690458 -0.0931477 0)
(-0.0239064 -0.052554 0)
(-0.0033137 -0.0121084 0)
(-0.00661015 0.0350423 0)
(-0.0370019 0.101362 0)
(-0.094735 0.15303 0)
(-0.167449 0.185891 0)
(-0.246492 0.199747 0)
(-0.325572 0.195899 0)
(-0.399004 0.176139 0)
(-0.4617 0.142397 0)
(-0.509242 0.0967927 0)
(-0.537927 0.0419382 0)
(-0.544943 -0.0187018 0)
(-0.52867 -0.0805515 0)
(-0.489072 -0.137903 0)
(-0.428126 -0.184244 0)
(-0.3502 -0.213015 0)
(-0.262184 -0.218811 0)
(-0.173084 -0.198902 0)
(-0.0930226 -0.154704 0)
(-0.0331314 -0.0928321 0)
(-0.00486192 -0.02622 0)
(-0.00816487 0.0564783 0)
(-0.044973 0.153122 0)
(-0.113888 0.224548 0)
(-0.199537 0.268258 0)
(-0.291642 0.285388 0)
(-0.383195 0.278323 0)
(-0.468108 0.249722 0)
(-0.541026 0.202233 0)
(-0.597285 0.138651 0)
(-0.632858 0.0623514 0)
(-0.644455 -0.0222139 0)
(-0.629811 -0.10912 0)
(-0.588133 -0.190844 0)
(-0.520689 -0.258561 0)
(-0.431459 -0.303008 0)
(-0.327639 -0.316022 0)
(-0.219547 -0.292644 0)
(-0.119777 -0.233322 0)
(-0.04333 -0.14556 0)
(-0.00651184 -0.0451356 0)
(-0.00956526 0.0819393 0)
(-0.0522142 0.213913 0)
(-0.131345 0.307639 0)
(-0.228795 0.36305 0)
(-0.33279 0.383299 0)
(-0.435749 0.372336 0)
(-0.531365 0.33396 0)
(-0.614224 0.271625 0)
(-0.679598 0.188744 0)
(-0.723246 0.0892869 0)
(-0.7414 -0.0215313 0)
(-0.730995 -0.136655 0)
(-0.690148 -0.246855 0)
(-0.618919 -0.340856 0)
(-0.520302 -0.406178 0)
(-0.40125 -0.430925 0)
(-0.273132 -0.406582 0)
(-0.151285 -0.331289 0)
(-0.0555574 -0.212635 0)
(-0.00853607 -0.0695698 0)
(-0.0108356 0.111046 0)
(-0.058758 0.282884 0)
(-0.147025 0.401167 0)
(-0.254862 0.468974 0)
(-0.369144 0.492176 0)
(-0.481904 0.476816 0)
(-0.586851 0.428128 0)
(-0.67877 0.350461 0)
(-0.753126 0.247745 0)
(-0.805661 0.124297 0)
(-0.832232 -0.0142636 0)
(-0.828927 -0.160144 0)
(-0.792514 -0.302718 0)
(-0.721326 -0.428313 0)
(-0.616607 -0.520799 0)
(-0.484189 -0.56345 0)
(-0.335797 -0.542423 0)
(-0.189451 -0.451507 0)
(-0.0709344 -0.296901 0)
(-0.0112335 -0.100855 0)
(-0.0119988 0.143437 0)
(-0.0646429 0.359132 0)
(-0.160836 0.503761 0)
(-0.277247 0.58429 0)
(-0.399534 0.610083 0)
(-0.51957 0.589864 0)
(-0.63139 0.530651 0)
(-0.73033 0.437784 0)
(-0.812397 0.315596 0)
(-0.873655 0.168439 0)
(-0.90986 0.00186525 0)
(-0.91639 -0.176178 0)
(-0.888575 -0.354246 0)
(-0.822575 -0.516643 0)
(-0.717011 -0.643442 0)
(-0.575329 -0.712049 0)
(-0.408269 -0.701127 0)
(-0.235812 -0.597096 0)
(-0.0906138 -0.402072 0)
(-0.0149514 -0.140966 0)
(-0.0131197 0.178793 0)
(-0.0700445 0.441733 0)
(-0.172876 0.613775 0)
(-0.295558 0.706634 0)
(-0.422631 0.734124 0)
(-0.546108 0.708366 0)
(-0.660763 0.638566 0)
(-0.762935 0.53119 0)
(-0.849654 0.390863 0)
(-0.917797 0.221642 0)
(-0.963497 0.0284584 0)
(-0.981829 -0.181337 0)
(-0.966882 -0.396372 0)
(-0.91244 -0.599765 0)
(-0.813665 -0.7682 0)
(-0.670039 -0.872577 0)
(-0.489169 -0.88174 0)
(-0.291154 -0.770589 0)
(-0.115775 -0.532457 0)
(-0.0201332 -0.192569 0)
(-0.0143796 0.216972 0)
(-0.0754975 0.529893 0)
(-0.183756 0.729285 0)
(-0.309844 0.832837 0)
(-0.437265 0.860115 0)
(-0.558627 0.827536 0)
(-0.670004 0.746981 0)
(-0.769317 0.626205 0)
(-0.85521 0.470044 0)
(-0.926005 0.281951 0)
(-0.978896 0.0656812 0)
(-1.00936 -0.172871 0)
(-1.01084 -0.423587 0)
(-0.974986 -0.6698 0)
(-0.893003 -0.886049 0)
(-0.75876 -1.03701 0)
(-0.573805 -1.07978 0)
(-0.354906 -0.9726 0)
(-0.147592 -0.692448 0)
(-0.0273935 -0.259101 0)
(-0.016206 0.258317 0)
(-0.0822318 0.623281 0)
(-0.195012 0.848165 0)
(-0.320941 0.95873 0)
(-0.442676 0.982217 0)
(-0.554185 0.940474 0)
(-0.653638 0.848581 0)
(-0.741257 0.715742 0)
(-0.817967 0.546942 0)
(-0.88423 0.34479 0)
(-0.939109 0.11139 0)
(-0.979442 -0.149654 0)
(-0.999071 -0.430823 0)
(-0.988389 -0.717594 0)
(-0.934858 -0.984658 0)
(-0.825538 -1.19226 0)
(-0.652579 -1.28523 0)
(-0.424124 -1.19981 0)
(-0.187087 -0.885568 0)
(-0.0376257 -0.34493 0)
(-0.0195007 0.304257 0)
(-0.092659 0.722522 0)
(-0.20952 0.968082 0)
(-0.330581 1.07878 0)
(-0.438326 1.09245 0)
(-0.529452 1.0377 0)
(-0.605395 0.933237 0)
(-0.669529 0.78976 0)
(-0.725717 0.612299 0)
(-0.777183 0.402451 0)
(-0.825618 0.160371 0)
(-0.870251 -0.11325 0)
(-0.906708 -0.414738 0)
(-0.925729 -0.733931 0)
(-0.912359 -1.04899 0)
(-0.846839 -1.31955 0)
(-0.709086 -1.4804 0)
(-0.491855 -1.44209 0)
(-0.234712 -1.11275 0)
(-0.0521263 -0.455549 0)
(-0.0260359 0.358374 0)
(-0.111008 0.829768 0)
(-0.231559 1.08611 0)
(-0.340593 1.18527 0)
(-0.422411 1.17986 0)
(-0.478927 1.10657 0)
(-0.516495 0.98777 0)
(-0.542563 0.835293 0)
(-0.564426 0.653938 0)
(-0.588401 0.44415 0)
(-0.619228 0.204071 0)
(-0.659315 -0.0687248 0)
(-0.707468 -0.375183 0)
(-0.75693 -0.711469 0)
(-0.792965 -1.06308 0)
(-0.791046 -1.39501 0)
(-0.718027 -1.63825 0)
(-0.544593 -1.67879 0)
(-0.289169 -1.36915 0)
(-0.0726066 -0.597586 0)
(-0.0390404 0.428161 0)
(-0.143811 0.948829 0)
(-0.265473 1.19721 0)
(-0.349503 1.26638 0)
(-0.387207 1.22914 0)
(-0.389893 1.13069 0)
(-0.370874 0.996036 0)
(-0.342394 0.837107 0)
(-0.315201 0.657772 0)
(-0.298424 0.457089 0)
(-0.299602 0.23136 0)
(-0.324424 -0.0246107 0)
(-0.375747 -0.316286 0)
(-0.45144 -0.647098 0)
(-0.540701 -1.01324 0)
(-0.618923 -1.39231 0)
(-0.643058 -1.72254 0)
(-0.558229 -1.87494 0)
(-0.344314 -1.63897 0)
(-0.100518 -0.778016 0)
(-0.063519 0.527931 0)
(-0.198549 1.08344 0)
(-0.309423 1.28992 0)
(-0.342336 1.30241 0)
(-0.307355 1.21842 0)
(-0.23101 1.08935 0)
(-0.135074 0.939821 0)
(-0.0362524 0.77957 0)
(0.052315 0.610241 0)
(0.119986 0.429126 0)
(0.157684 0.231002 0)
(0.157384 0.00881976 0)
(0.112457 -0.246147 0)
(0.0192347 -0.543734 0)
(-0.119158 -0.892063 0)
(-0.285061 -1.28769 0)
(-0.434472 -1.6908 0)
(-0.491568 -1.97886 0)
(-0.38179 -1.88865 0)
(-0.133871 -1.0032 0)
(-0.103874 0.684679 0)
(-0.274085 1.22887 0)
(-0.333968 1.33344 0)
(-0.263925 1.25653 0)
(-0.114415 1.11516 0)
(0.0691426 0.957364 0)
(0.2587 0.801054 0)
(0.436271 0.650188 0)
(0.589438 0.502519 0)
(0.708777 0.353196 0)
(0.78602 0.196006 0)
(0.812888 0.0234078 0)
(0.780657 -0.174287 0)
(0.680514 -0.410218 0)
(0.505935 -0.701766 0)
(0.260304 -1.06627 0)
(-0.0264899 -1.50003 0)
(-0.276791 -1.92104 0)
(-0.357046 -2.0569 0)
(-0.157477 -1.27745 0)
(-0.146883 0.938464 0)
(-0.320806 1.34174 0)
(-0.219261 1.2487 0)
(0.0411753 1.06139 0)
(0.348696 0.87512 0)
(0.652822 0.710385 0)
(0.931713 0.569397 0)
(1.17428 0.447374 0)
(1.37435 0.337595 0)
(1.52763 0.233513 0)
(1.62958 0.128967 0)
(1.67425 0.0175565 0)
(1.65345 -0.10859 0)
(1.55588 -0.261208 0)
(1.36687 -0.459575 0)
(1.07183 -0.73431 0)
(0.668733 -1.12165 0)
(0.197186 -1.61795 0)
(-0.173139 -2.02704 0)
(-0.11506 -1.56403 0)
(-0.0398594 1.21009 0)
(-0.058849 1.25673 0)
(0.405128 0.92373 0)
(0.927753 0.673668 0)
(1.37621 0.499694 0)
(1.74867 0.373631 0)
(2.05525 0.280354 0)
(2.30248 0.208811 0)
(2.49541 0.150475 0)
(2.63732 0.0992038 0)
(2.72904 0.0504599 0)
(2.76858 0.000385867 0)
(2.75067 -0.0552371 0)
(2.66539 -0.122894 0)
(2.4958 -0.214781 0)
(2.21447 -0.356701 0)
(1.77919 -0.601222 0)
(1.13747 -1.02417 0)
(0.412281 -1.59347 0)
(0.197146 -1.59958 0)
(1.3654 0.671076 0)
(1.74657 0.594413 0)
(2.44068 0.376698 0)
(2.98593 0.236834 0)
(3.33955 0.153582 0)
(3.58094 0.101576 0)
(3.75574 0.0681455 0)
(3.88367 0.0458472 0)
(3.97542 0.0298873 0)
(4.03731 0.0172926 0)
(4.07241 0.00622076 0)
(4.08132 -0.0045854 0)
(4.06233 -0.0162641 0)
(4.01094 -0.0304432 0)
(3.91761 -0.0503067 0)
(3.76191 -0.0837204 0)
(3.49624 -0.151573 0)
(2.99273 -0.302424 0)
(2.16466 -0.591767 0)
(1.57174 -0.737171 0)
)
;

boundaryField
{
    movingWall
    {
        type            fixedValue;
        value           uniform (4.8 0 0);
    }
    fixedWalls
    {
        type            noSlip;
    }
    frontAndBack
    {
        type            empty;
    }
}


// ************************************************************************* //
