/*--------------------------------*- C++ -*----------------------------------*\
  =========                 |
  \\      /  F ield         | OpenFOAM: The Open Source CFD Toolbox
   \\    /   O peration     | Website:  https://openfoam.org
    \\  /    A nd           | Version:  8
     \\/     M anipulation  |
\*---------------------------------------------------------------------------*/
FoamFile
{
    version     2.0;
    format      ascii;
    class       volScalarField;
    location    "0.5";
    object      p;
}
// * * * * * * * * * * * * * * * * * * * * * * * * * * * * * * * * * * * * * //

dimensions      [0 2 -2 0 0 0 0];

internalField   nonuniform List<scalar> 
400
(
8.67108e-06
-0.0175021
-0.0384532
-0.0542266
-0.0600943
-0.0540324
-0.0358375
-0.00652581
0.0319943
0.0770492
0.125266
0.172694
0.215067
0.248252
0.268863
0.275003
0.267034
0.248245
0.225265
0.207931
0.0174005
-0.000698335
-0.0170655
-0.0277953
-0.0308529
-0.0248588
-0.00955839
0.0143762
0.0455573
0.0819503
0.120919
0.159337
0.193821
0.221106
0.238551
0.244719
0.239945
0.226614
0.208491
0.19082
0.0395818
0.0145896
-0.00297003
-0.0126624
-0.0151006
-0.00968089
0.00365534
0.0243281
0.0512542
0.0828241
0.116873
0.150742
0.181456
0.206061
0.222066
0.227961
0.223765
0.21107
0.191246
0.166587
0.0585775
0.0243423
0.00276074
-0.00815207
-0.0112708
-0.0066924
0.00538373
0.0243596
0.0493316
0.0789686
0.11139
0.144146
0.174349
0.198959
0.215216
0.221173
0.216335
0.201625
0.176591
0.141907
0.0688037
0.0251565
-0.00112939
-0.0139485
-0.018125
-0.0143362
-0.00299404
0.0152906
0.0397707
0.0693457
0.10234
0.136399
0.168546
0.195434
0.213768
0.220897
0.215629
0.198221
0.166694
0.120784
0.0659716
0.0132504
-0.0177811
-0.0326289
-0.0378358
-0.0345514
-0.0233326
-0.00475973
0.020597
0.0518685
0.0875618
0.12536
0.162093
0.193928
0.216784
0.227015
0.222471
0.202611
0.163974
0.10574
0.0464166
-0.0149583
-0.0504891
-0.0671517
-0.073086
-0.0698482
-0.0580782
-0.0382646
-0.0107428
0.0239026
0.0644048
0.108499
0.152781
0.1928
0.223443
0.239706
0.238089
0.21692
0.170968
0.0989409
0.00665952
-0.0629761
-0.102562
-0.120538
-0.126647
-0.12285
-0.109828
-0.0879066
-0.0570911
-0.0175668
0.0297487
0.082753
0.13786
0.189945
0.232627
0.259116
0.263992
0.243827
0.19089
0.103172
-0.0568588
-0.134455
-0.177466
-0.195927
-0.201356
-0.196195
-0.181165
-0.156354
-0.121309
-0.0756388
-0.0196985
0.0447956
0.11426
0.182957
0.243071
0.28555
0.302278
0.287076
0.228372
0.122763
-0.147962
-0.233374
-0.278871
-0.296448
-0.299817
-0.29211
-0.274128
-0.24566
-0.205634
-0.152847
-0.0867856
-0.00842675
0.0790018
0.169399
0.253512
0.31959
0.355878
0.351978
0.2903
0.16464
-0.271028
-0.364321
-0.410712
-0.424992
-0.423936
-0.411745
-0.389408
-0.356346
-0.310683
-0.250115
-0.172871
-0.0787098
0.0300473
0.147461
0.263138
0.362412
0.428908
0.44605
0.386902
0.23977
-0.431684
-0.533061
-0.577323
-0.583899
-0.574262
-0.554286
-0.525281
-0.486208
-0.434148
-0.365356
-0.276361
-0.165119
-0.0323073
0.117148
0.272489
0.41642
0.527236
0.579875
0.533284
0.365397
-0.638465
-0.747652
-0.783667
-0.774483
-0.749102
-0.715851
-0.676401
-0.629024
-0.569419
-0.491994
-0.391106
-0.262283
-0.103695
0.0819233
0.284832
0.486281
0.659331
0.768243
0.751669
0.568838
-0.906684
-1.02051
-1.03553
-0.996193
-0.9433
-0.888217
-0.832603
-0.773478
-0.704579
-0.617959
-0.505312
-0.359155
-0.174275
0.0501671
0.307492
0.579923
0.837041
1.03142
1.07474
0.894457
-1.2671
-1.37184
-1.33905
-1.24478
-1.14635
-1.05735
-0.977977
-0.90274
-0.822412
-0.725979
-0.601976
-0.439423
-0.228984
0.0351365
0.351838
0.708278
1.07509
1.39543
1.54972
1.41579
-1.78301
-1.83422
-1.69874
-1.5093
-1.34012
-1.20225
-1.09092
-0.995566
-0.902362
-0.796221
-0.662012
-0.484905
-0.250927
0.0518479
0.4306
0.882815
1.38839
1.88942
2.23997
2.25087
-2.58392
-2.45617
-2.1144
-1.77088
-1.49928
-1.29697
-1.14757
-1.03096
-0.926061
-0.812582
-0.671212
-0.483102
-0.229332
0.109157
0.550658
1.1096
1.78671
2.5393
3.22358
3.58598
-3.98315
-3.29868
-2.55607
-1.98645
-1.58335
-1.3085
-1.12389
-0.992955
-0.884136
-0.771009
-0.630212
-0.439254
-0.174553
0.190749
0.689088
1.35983
2.23986
3.33485
4.60436
5.81178
-6.85405
-4.38208
-2.81602
-1.97204
-1.46358
-1.1531
-0.969602
-0.855525
-0.768411
-0.677503
-0.557738
-0.385365
-0.134866
0.225946
0.742649
1.48472
2.54915
4.07807
6.44999
9.85846
-12.1053
-5.43303
-2.47533
-1.44893
-0.983853
-0.749881
-0.647296
-0.607207
-0.5842
-0.549462
-0.481222
-0.359395
-0.161388
0.141855
0.596178
1.28619
2.37953
4.27835
8.27203
15.9887
)
;

boundaryField
{
    movingWall
    {
        type            zeroGradient;
    }
    fixedWalls
    {
        type            zeroGradient;
    }
    frontAndBack
    {
        type            empty;
    }
}


// ************************************************************************* //
