/*--------------------------------*- C++ -*----------------------------------*\
  =========                 |
  \\      /  F ield         | OpenFOAM: The Open Source CFD Toolbox
   \\    /   O peration     | Website:  https://openfoam.org
    \\  /    A nd           | Version:  8
     \\/     M anipulation  |
\*---------------------------------------------------------------------------*/
FoamFile
{
    version     2.0;
    format      ascii;
    class       surfaceScalarField;
    location    "0.5";
    object      phi;
}
// * * * * * * * * * * * * * * * * * * * * * * * * * * * * * * * * * * * * * //

dimensions      [0 3 -1 0 0 0 0];

internalField   nonuniform List<scalar> 
760
(
3.97121e-08
-3.9785e-08
-7.41152e-08
1.13827e-07
-3.50546e-07
2.76431e-07
-7.3843e-07
3.87884e-07
-1.18073e-06
4.42298e-07
-1.62566e-06
4.44933e-07
-2.02906e-06
4.03401e-07
-2.35438e-06
3.25324e-07
-2.57231e-06
2.17927e-07
-2.66116e-06
8.88436e-08
-2.60842e-06
-5.27386e-08
-2.4132e-06
-1.95222e-07
-2.08877e-06
-3.24432e-07
-1.66443e-06
-4.24337e-07
-1.18565e-06
-4.7878e-07
-7.11434e-07
-4.74211e-07
-3.08153e-07
-4.03281e-07
-3.92767e-08
-2.68879e-07
5.28309e-08
-9.21121e-08
5.28276e-08
-1.10053e-07
7.02679e-08
-5.57266e-07
5.6104e-07
-1.3184e-06
1.03756e-06
-2.29933e-06
1.36881e-06
-3.38602e-06
1.52899e-06
-4.46608e-06
1.52499e-06
-5.43825e-06
1.37557e-06
-6.21637e-06
1.10344e-06
-6.73142e-06
7.32982e-07
-6.93401e-06
2.91427e-07
-6.79799e-06
-1.88752e-07
-6.32512e-06
-6.68097e-07
-5.54936e-06
-1.1002e-06
-4.53935e-06
-1.43435e-06
-3.39697e-06
-1.62116e-06
-2.25003e-06
-1.62115e-06
-1.23744e-06
-1.41588e-06
-4.86154e-07
-1.02016e-06
-7.87996e-08
-4.99466e-07
-2.59757e-08
-2.88263e-07
3.5853e-07
-1.09443e-06
1.3672e-06
-2.31649e-06
2.25963e-06
-3.81366e-06
2.86598e-06
-5.43056e-06
3.14589e-06
-7.01527e-06
3.1097e-06
-8.42975e-06
2.79005e-06
-9.55558e-06
2.22927e-06
-1.02978e-05
1.47521e-06
-1.05889e-05
5.82511e-07
-1.03937e-05
-3.83939e-07
-9.71524e-06
-1.34655e-06
-8.5999e-06
-2.21554e-06
-7.14032e-06
-2.89394e-06
-5.47336e-06
-3.28812e-06
-3.77085e-06
-3.32366e-06
-2.22108e-06
-2.96564e-06
-1.00129e-06
-2.23995e-06
-2.43298e-07
-1.25745e-06
-2.69276e-07
-4.50753e-07
8.09282e-07
-1.60352e-06
2.51997e-06
-3.26585e-06
3.92195e-06
-5.23998e-06
4.84011e-06
-7.33048e-06
5.23639e-06
-9.35438e-06
5.1336e-06
-1.11481e-05
4.58377e-06
-1.2572e-05
3.65316e-06
-1.35139e-05
2.41709e-06
-1.38932e-05
9.61889e-07
-1.36667e-05
-6.10449e-07
-1.28346e-05
-2.17872e-06
-1.14471e-05
-3.60302e-06
-9.60911e-06
-4.73191e-06
-7.47974e-06
-5.41749e-06
-5.26421e-06
-5.5392e-06
-3.19569e-06
-5.03416e-06
-1.50698e-06
-3.92865e-06
-3.96472e-07
-2.36796e-06
-6.65746e-07
-5.96989e-07
1.40627e-06
-2.07619e-06
3.99917e-06
-4.15674e-06
6.00251e-06
-6.58004e-06
7.26341e-06
-9.11023e-06
7.76658e-06
-1.15372e-05
7.5606e-06
-1.36786e-05
6.72509e-06
-1.53803e-05
5.35489e-06
-1.65185e-05
3.55533e-06
-1.70023e-05
1.44569e-06
-1.67788e-05
-8.34028e-07
-1.584e-05
-3.11747e-06
-1.42318e-05
-5.21127e-06
-1.20609e-05
-6.9028e-06
-9.49938e-06
-7.97896e-06
-6.78104e-06
-8.25754e-06
-4.18609e-06
-7.62913e-06
-2.01332e-06
-6.10142e-06
-5.42862e-07
-3.83841e-06
-1.20861e-06
-7.31752e-07
2.13802e-06
-2.51866e-06
5.78608e-06
-4.9961e-06
8.47995e-06
-7.84439e-06
1.01117e-05
-1.0788e-05
1.07102e-05
-1.35931e-05
1.03657e-05
-1.60633e-05
9.19528e-06
-1.80359e-05
7.32753e-06
-1.93796e-05
4.89899e-06
-1.99944e-05
2.06051e-06
-1.98159e-05
-1.01255e-06
-1.88223e-05
-4.11104e-06
-1.70456e-05
-6.988e-06
-1.45837e-05
-9.36461e-06
-1.16123e-05
-1.09504e-05
-8.38848e-06
-1.14813e-05
-5.24284e-06
-1.07748e-05
-2.5523e-06
-8.79196e-06
-6.95908e-07
-5.6948e-06
-1.90451e-06
-8.59436e-07
2.99746e-06
-2.93876e-06
7.8654e-06
-5.79189e-06
1.13331e-05
-9.03889e-06
1.33587e-05
-1.23667e-05
1.4038e-05
-1.55217e-05
1.35207e-05
-1.82999e-05
1.19734e-05
-2.05356e-05
9.56328e-06
-2.20949e-05
6.45827e-06
-2.28712e-05
2.83685e-06
-2.27872e-05
-1.09662e-06
-2.18014e-05
-5.09681e-06
-1.99221e-05
-8.86733e-06
-1.72255e-05
-1.20612e-05
-1.38771e-05
-1.42988e-05
-1.01488e-05
-1.52097e-05
-6.42111e-06
-1.45024e-05
-3.16151e-06
-1.20516e-05
-8.70619e-07
-7.9857e-06
-2.77513e-06
-9.83502e-07
3.98096e-06
-3.34286e-06
1.02248e-05
-6.54834e-06
1.45386e-05
-1.01595e-05
1.69699e-05
-1.3829e-05
1.77074e-05
-1.72899e-05
1.69817e-05
-2.03382e-05
1.50217e-05
-2.28141e-05
1.20391e-05
-2.45879e-05
8.23213e-06
-2.55514e-05
3.80032e-06
-2.56149e-05
-1.03316e-06
-2.47131e-05
-5.99859e-06
-2.28202e-05
-1.07602e-05
-1.99746e-05
-1.49068e-05
-1.63127e-05
-1.79607e-05
-1.21031e-05
-1.94193e-05
-7.76906e-06
-1.88365e-05
-3.87813e-06
-1.59425e-05
-1.08228e-06
-1.07815e-05
-3.85741e-06
-1.10728e-06
5.08824e-06
-3.73682e-06
1.28543e-05
-7.26626e-06
1.8068e-05
-1.1192e-05
2.08956e-05
-1.51366e-05
2.1652e-05
-1.88293e-05
2.06745e-05
-2.20777e-05
1.827e-05
-2.47396e-05
1.47011e-05
-2.67011e-05
1.01936e-05
-2.78603e-05
4.95956e-06
-2.81202e-05
-7.73263e-07
-2.73904e-05
-6.72842e-06
-2.56018e-05
-1.25488e-05
-2.27369e-05
-1.77717e-05
-1.88759e-05
-2.18217e-05
-1.42548e-05
-2.40403e-05
-9.31809e-06
-2.37732e-05
-4.73564e-06
-2.05249e-05
-1.34656e-06
-1.41706e-05
-5.20397e-06
-1.23618e-06
6.32442e-06
-4.13025e-06
1.57484e-05
-7.9474e-06
2.18852e-05
-1.21146e-05
2.50628e-05
-1.6231e-05
2.57684e-05
-2.00357e-05
2.44792e-05
-2.33645e-05
2.15988e-05
-2.61097e-05
1.74463e-05
-2.81886e-05
1.22725e-05
-2.95195e-05
6.29048e-06
-3.00079e-05
-2.84918e-07
-2.95423e-05
-7.194e-06
-2.80054e-05
-1.40857e-05
-2.53053e-05
-2.04718e-05
-2.14331e-05
-2.5694e-05
-1.65473e-05
-2.89261e-05
-1.10712e-05
-2.92493e-05
-5.76137e-06
-2.58348e-05
-1.68057e-06
-1.82514e-05
-6.88454e-06
-1.38165e-06
7.70607e-06
-4.54358e-06
1.89103e-05
-8.60117e-06
2.59427e-05
-1.29023e-05
2.93639e-05
-1.70343e-05
2.99004e-05
-2.07671e-05
2.8212e-05
-2.39881e-05
2.48198e-05
-2.66465e-05
2.01046e-05
-2.87108e-05
1.43368e-05
-3.01383e-05
7.71794e-06
-3.08529e-05
4.29704e-07
-3.0734e-05
-7.31293e-06
-2.96184e-05
-1.52012e-05
-2.73268e-05
-2.27634e-05
-2.37251e-05
-2.92957e-05
-1.88347e-05
-3.38165e-05
-1.29858e-05
-3.50982e-05
-6.97256e-06
-3.1848e-05
-2.10489e-06
-2.31191e-05
-8.98943e-06
-1.56754e-06
9.27361e-06
-5.01781e-06
2.23606e-05
-9.25105e-06
3.0176e-05
-1.35265e-05
3.36394e-05
-1.7443e-05
3.38169e-05
-2.08348e-05
3.16039e-05
-2.36727e-05
2.76576e-05
-2.59898e-05
2.24218e-05
-2.78299e-05
1.61769e-05
-2.92105e-05
9.09856e-06
-3.00957e-05
1.31491e-06
-3.03755e-05
-7.0331e-06
-2.98556e-05
-1.57211e-05
-2.82681e-05
-2.43509e-05
-2.53249e-05
-3.22389e-05
-2.08405e-05
-3.83009e-05
-1.49459e-05
-4.09927e-05
-8.36821e-06
-3.84257e-05
-2.64658e-06
-2.88407e-05
-1.1636e-05
-1.8405e-06
1.11141e-05
-5.62507e-06
2.61451e-05
-9.93357e-06
3.44845e-05
-1.394e-05
3.76458e-05
-1.73037e-05
3.71806e-05
-1.99759e-05
3.4276e-05
-2.20528e-05
2.97345e-05
-2.36817e-05
2.40507e-05
-2.50038e-05
1.7499e-05
-2.61172e-05
1.0212e-05
-2.70484e-05
2.24617e-06
-2.77253e-05
-6.35626e-06
-2.79508e-05
-1.54955e-05
-2.73896e-05
-2.49121e-05
-2.55917e-05
-3.40368e-05
-2.21022e-05
-4.17904e-05
-1.67164e-05
-4.63785e-05
-9.91094e-06
-4.52312e-05
-3.34316e-06
-3.54085e-05
-1.49792e-05
-2.28616e-06
1.34003e-05
-6.47308e-06
3.03321e-05
-1.06715e-05
3.86829e-05
-1.4022e-05
4.09963e-05
-1.63434e-05
3.9502e-05
-1.77845e-05
3.57172e-05
-1.8617e-05
3.0567e-05
-1.91284e-05
2.45621e-05
-1.95701e-05
1.79406e-05
-2.01305e-05
1.07724e-05
-2.09142e-05
3.02987e-06
-2.19141e-05
-5.35632e-06
-2.29728e-05
-1.44369e-05
-2.37364e-05
-2.41484e-05
-2.36279e-05
-3.41454e-05
-2.18978e-05
-4.35205e-05
-1.78665e-05
-5.04098e-05
-1.14853e-05
-5.16125e-05
-4.24419e-06
-4.26496e-05
-1.92234e-05
-3.04782e-06
1.64481e-05
-7.67681e-06
3.49611e-05
-1.13737e-05
4.23798e-05
-1.34298e-05
4.30524e-05
-1.40089e-05
4.00811e-05
-1.35656e-05
3.52739e-05
-1.25922e-05
2.95936e-05
-1.15226e-05
2.34925e-05
-1.07072e-05
1.71252e-05
-1.04115e-05
1.04767e-05
-1.08146e-05
3.433e-06
-1.19916e-05
-4.17932e-06
-1.38705e-05
-1.2558e-05
-1.61583e-05
-2.18606e-05
-1.82462e-05
-3.20575e-05
-1.91505e-05
-4.26162e-05
-1.76374e-05
-5.19229e-05
-1.27962e-05
-5.64537e-05
-5.39212e-06
-5.00537e-05
-2.46155e-05
-4.31573e-06
2.07638e-05
-9.20457e-06
3.98499e-05
-1.15426e-05
4.47178e-05
-1.12527e-05
4.27625e-05
-9.13945e-06
3.79678e-05
-6.0666e-06
3.2201e-05
-2.74678e-06
2.62738e-05
2.8363e-07
2.04621e-05
2.63101e-06
1.47778e-05
4.00216e-06
9.10554e-06
4.17747e-06
3.2577e-06
3.00754e-06
-3.0094e-06
4.45134e-07
-9.99558e-06
-3.37099e-06
-1.80445e-05
-7.96317e-06
-2.74653e-05
-1.23089e-05
-3.82704e-05
-1.47131e-05
-4.95187e-05
-1.31265e-05
-5.80404e-05
-6.71988e-06
-5.64603e-05
-3.13354e-05
-6.16823e-06
2.69321e-05
-1.03255e-05
4.40072e-05
-9.52045e-06
4.39127e-05
-5.29117e-06
3.85333e-05
6.04245e-07
3.20724e-05
6.92201e-06
2.58833e-05
1.28597e-05
2.03361e-05
1.79167e-05
1.54051e-05
2.17717e-05
1.09228e-05
2.41947e-05
6.68258e-06
2.49917e-05
2.46068e-06
2.39794e-05
-1.99709e-06
2.09914e-05
-7.00764e-06
1.59386e-05
-1.29917e-05
8.96988e-06
-2.04966e-05
7.93887e-07
-3.00944e-05
-6.84641e-06
-4.18784e-05
-1.08349e-05
-5.40519e-05
-7.74153e-06
-5.95536e-05
-3.90769e-05
-7.9091e-06
3.48412e-05
-7.94571e-06
4.40438e-05
-7.62386e-07
3.67294e-05
9.2344e-06
2.85365e-05
1.95316e-05
2.17752e-05
2.8966e-05
1.64488e-05
3.70192e-05
1.22829e-05
4.34762e-05
8.94807e-06
4.82475e-05
6.15159e-06
5.12696e-05
3.66044e-06
5.24506e-05
1.2797e-06
5.16366e-05
-1.18307e-06
4.85897e-05
-3.96075e-06
4.29917e-05
-7.39372e-06
3.45218e-05
-1.20266e-05
2.31369e-05
-1.87096e-05
9.7762e-06
-2.85177e-05
-2.35465e-06
-4.1921e-05
-6.83552e-06
-5.50727e-05
-4.59124e-05
-4.05214e-06
3.88933e-05
8.49547e-06
3.14962e-05
2.55879e-05
1.96369e-05
4.1274e-05
1.28504e-05
5.43283e-05
8.72091e-06
6.47748e-05
6.00233e-06
7.28993e-05
4.15846e-06
7.8998e-05
2.84936e-06
8.32991e-05
1.85051e-06
8.59393e-05
1.02019e-06
8.69556e-05
2.63425e-07
8.62749e-05
-5.02377e-07
8.36782e-05
-1.36406e-06
7.87496e-05
-2.46505e-06
7.07953e-05
-4.07242e-06
5.88263e-05
-6.74052e-06
4.19239e-05
-1.16152e-05
2.07668e-05
-2.07639e-05
1.77392e-06
-3.60799e-05
-4.41385e-05
3.88933e-05
7.03895e-05
9.00264e-05
0.000102877
0.000111598
0.0001176
0.000121759
0.000124608
0.000126458
0.000127479
0.000127742
0.00012724
0.000125876
0.00012341
0.000119338
0.000112598
0.000100982
8.02184e-05
4.41385e-05
)
;

boundaryField
{
    movingWall
    {
        type            calculated;
        value           uniform 0;
    }
    fixedWalls
    {
        type            calculated;
        value           uniform 0;
    }
    frontAndBack
    {
        type            empty;
        value           nonuniform List<scalar> 0();
    }
}


// ************************************************************************* //
