/*--------------------------------*- C++ -*----------------------------------*\
  =========                 |
  \\      /  F ield         | OpenFOAM: The Open Source CFD Toolbox
   \\    /   O peration     | Website:  https://openfoam.org
    \\  /    A nd           | Version:  8
     \\/     M anipulation  |
\*---------------------------------------------------------------------------*/
FoamFile
{
    version     2.0;
    format      ascii;
    class       surfaceScalarField;
    location    "0.2";
    object      phi;
}
// * * * * * * * * * * * * * * * * * * * * * * * * * * * * * * * * * * * * * //

dimensions      [0 3 -1 0 0 0 0];

internalField   nonuniform List<scalar> 
760
(
5.0384e-08
-5.03977e-08
-9.94986e-08
1.49885e-07
-4.58615e-07
3.59115e-07
-9.5971e-07
5.01094e-07
-1.52997e-06
5.70255e-07
-2.10439e-06
5.74427e-07
-2.62768e-06
5.23285e-07
-3.05328e-06
4.25602e-07
-3.3425e-06
2.89224e-07
-3.4652e-06
1.22699e-07
-3.40245e-06
-6.27569e-08
-3.15062e-06
-2.5183e-07
-2.72575e-06
-4.2487e-07
-2.16662e-06
-5.59129e-07
-1.53495e-06
-6.31669e-07
-9.11211e-07
-6.23744e-07
-3.84973e-07
-5.26237e-07
-3.97026e-08
-3.45269e-07
7.26563e-08
-1.12357e-07
7.26565e-08
-1.46535e-07
9.61337e-08
-7.32041e-07
7.35388e-07
-1.72154e-06
1.34861e-06
-2.99173e-06
1.77129e-06
-4.39688e-06
1.9754e-06
-5.79497e-06
1.97253e-06
-7.05802e-06
1.78633e-06
-8.07553e-06
1.44311e-06
-8.75655e-06
9.70242e-07
-9.03317e-06
3.99326e-07
-8.86658e-06
-2.29352e-07
-8.25467e-06
-8.63744e-07
-7.23951e-06
-1.44004e-06
-5.91162e-06
-1.88701e-06
-4.40819e-06
-2.1351e-06
-2.90213e-06
-2.1298e-06
-1.58011e-06
-1.84826e-06
-6.09335e-07
-1.31605e-06
-9.30112e-08
-6.28689e-07
-2.03526e-08
-3.80693e-07
4.76827e-07
-1.43513e-06
1.78983e-06
-3.0243e-06
2.93777e-06
-4.96455e-06
3.71154e-06
-7.0576e-06
4.06844e-06
-9.11134e-06
4.02627e-06
-1.09509e-05
3.62586e-06
-1.2424e-05
2.91625e-06
-1.34056e-05
1.95181e-06
-1.3803e-05
7.96758e-07
-1.35643e-05
-4.68028e-07
-1.26877e-05
-1.74041e-06
-1.12302e-05
-2.89752e-06
-9.31333e-06
-3.80387e-06
-7.12055e-06
-4.32788e-06
-4.88387e-06
-4.36648e-06
-2.85677e-06
-3.87536e-06
-1.27408e-06
-2.89873e-06
-3.03499e-07
-1.59928e-06
-3.2385e-07
-5.94342e-07
1.07117e-06
-2.10061e-06
3.29609e-06
-4.26071e-06
5.09788e-06
-6.81801e-06
6.26885e-06
-9.52408e-06
6.77451e-06
-1.21482e-05
6.6504e-06
-1.44834e-05
5.96109e-06
-1.63503e-05
4.78309e-06
-1.76006e-05
3.20217e-06
-1.81238e-05
1.31994e-06
-1.78552e-05
-7.36631e-07
-1.67871e-05
-2.80852e-06
-1.49796e-05
-4.70506e-06
-1.25684e-05
-6.21502e-06
-9.76593e-06
-7.13037e-06
-6.8495e-06
-7.28292e-06
-4.13469e-06
-6.59017e-06
-1.93294e-06
-5.10048e-06
-5.01067e-07
-3.03115e-06
-8.24916e-07
-7.85683e-07
1.85685e-06
-2.71416e-06
5.22457e-06
-5.41204e-06
7.79576e-06
-8.54592e-06
9.40273e-06
-1.18178e-05
1.00464e-05
-1.49645e-05
9.7971e-06
-1.77561e-05
8.75264e-06
-1.9995e-05
7.02196e-06
-2.15171e-05
4.72429e-06
-2.21963e-05
1.99917e-06
-2.19527e-05
-9.8023e-07
-2.07644e-05
-3.99684e-06
-1.86814e-05
-6.78804e-06
-1.58389e-05
-9.05749e-06
-1.24649e-05
-1.05044e-05
-8.87563e-06
-1.08722e-05
-5.45333e-06
-1.00125e-05
-2.60254e-06
-7.95127e-06
-6.92266e-07
-4.94142e-06
-1.51718e-06
-9.59392e-07
2.81625e-06
-3.27958e-06
7.54476e-06
-6.48006e-06
1.09962e-05
-1.01524e-05
1.3075e-05
-1.39515e-05
1.38455e-05
-1.75867e-05
1.34323e-05
-2.08123e-05
1.19783e-05
-2.342e-05
9.62968e-06
-2.5235e-05
6.53929e-06
-2.61171e-05
2.88122e-06
-2.59672e-05
-1.13014e-06
-2.47399e-05
-5.2241e-06
-2.24613e-05
-9.06665e-06
-1.92495e-05
-1.22693e-05
-1.53334e-05
-1.44205e-05
-1.10615e-05
-1.51441e-05
-6.88791e-06
-1.4186e-05
-3.33001e-06
-1.15092e-05
-8.9631e-07
-7.37511e-06
-2.41349e-06
-1.11944e-06
3.93568e-06
-3.80224e-06
1.02276e-05
-7.46741e-06
1.46614e-05
-1.1635e-05
1.72426e-05
-1.59172e-05
1.81277e-05
-2.00023e-05
1.75175e-05
-2.36368e-05
1.56127e-05
-2.66093e-05
1.26022e-05
-2.87403e-05
8.67036e-06
-2.98782e-05
4.01905e-06
-2.9902e-05
-1.1063e-06
-2.87342e-05
-6.39187e-06
-2.63617e-05
-1.14392e-05
-2.28657e-05
-1.57654e-05
-1.8456e-05
-1.88302e-05
-1.34986e-05
-2.01015e-05
-8.52023e-06
-1.91644e-05
-4.17083e-06
-1.58586e-05
-1.13501e-06
-1.04109e-05
-3.54851e-06
-1.26851e-06
5.20419e-06
-4.28565e-06
1.32447e-05
-8.37208e-06
1.87478e-05
-1.29792e-05
2.18497e-05
-1.76822e-05
2.28307e-05
-2.2157e-05
2.19922e-05
-2.61522e-05
1.9608e-05
-2.94644e-05
1.59143e-05
-3.19184e-05
1.11244e-05
-3.33569e-05
5.45755e-06
-3.36384e-05
-8.24773e-07
-3.2647e-05
-7.3833e-06
-3.03156e-05
-1.37706e-05
-2.6665e-05
-1.94159e-05
-2.18565e-05
-2.36387e-05
-1.62464e-05
-2.57116e-05
-1.04214e-05
-2.49894e-05
-5.18019e-06
-2.10998e-05
-1.43092e-06
-1.41602e-05
-4.97943e-06
-1.4092e-06
6.61339e-06
-4.73319e-06
1.65687e-05
-9.18909e-06
2.32037e-05
-1.41596e-05
2.68203e-05
-1.91897e-05
2.78608e-05
-2.39545e-05
2.6757e-05
-2.82192e-05
2.38727e-05
-3.18026e-05
1.94977e-05
-3.45482e-05
1.387e-05
-3.63049e-05
7.2142e-06
-3.69174e-05
-2.12237e-07
-3.62312e-05
-8.06954e-06
-3.41138e-05
-1.5888e-05
-3.05001e-05
-2.30295e-05
-2.54632e-05
-2.86756e-05
-1.93043e-05
-3.18705e-05
-1.2636e-05
-3.16577e-05
-6.40757e-06
-2.73282e-05
-1.80738e-06
-1.87604e-05
-6.78681e-06
-1.54711e-06
8.16051e-06
-5.15449e-06
2.01761e-05
-9.91789e-06
2.79671e-05
-1.51467e-05
3.20491e-05
-2.03643e-05
3.30784e-05
-2.5261e-05
3.16538e-05
-2.96382e-05
2.82498e-05
-3.33571e-05
2.32167e-05
-3.62998e-05
1.68127e-05
-3.83397e-05
9.25409e-06
-3.93237e-05
7.71708e-07
-3.90672e-05
-8.32603e-06
-3.73691e-05
-1.75861e-05
-3.40557e-05
-2.63429e-05
-2.90654e-05
-3.36659e-05
-2.25771e-05
-3.83588e-05
-1.51618e-05
-3.90731e-05
-7.89162e-06
-3.45984e-05
-2.28975e-06
-2.43623e-05
-9.07656e-06
-1.69619e-06
9.8567e-06
-5.57579e-06
2.40557e-05
-1.05738e-05
3.29652e-05
-1.59165e-05
3.73917e-05
-2.11187e-05
3.82806e-05
-2.59102e-05
3.64453e-05
-3.01543e-05
3.2494e-05
-3.37812e-05
2.68435e-05
-3.67367e-05
1.97682e-05
-3.89445e-05
1.1462e-05
-4.02785e-05
2.10565e-06
-4.05453e-05
-8.0592e-06
-3.94855e-05
-1.86459e-05
-3.68054e-05
-2.9023e-05
-3.2263e-05
-3.82082e-05
-2.58288e-05
-4.47931e-05
-1.7921e-05
-4.69809e-05
-9.65175e-06
-4.28676e-05
-2.90763e-06
-3.11064e-05
-1.19842e-05
-1.88736e-06
1.17441e-05
-6.05442e-06
2.82227e-05
-1.12005e-05
3.81113e-05
-1.64568e-05
4.2648e-05
-2.13554e-05
4.31792e-05
-2.57018e-05
4.07917e-05
-2.9457e-05
3.62492e-05
-3.26514e-05
3.0038e-05
-3.53243e-05
2.24411e-05
-3.74794e-05
1.3617e-05
-3.90496e-05
3.67588e-06
-3.98671e-05
-7.24166e-06
-3.96436e-05
-1.88695e-05
-3.79762e-05
-3.06904e-05
-3.44132e-05
-4.17713e-05
-2.86238e-05
-5.05825e-05
-2.07157e-05
-5.4889e-05
-1.16719e-05
-5.19113e-05
-3.69778e-06
-3.90805e-05
-1.5682e-05
-2.18254e-06
1.39266e-05
-6.69548e-06
3.27357e-05
-1.1875e-05
4.32908e-05
-1.67569e-05
4.75299e-05
-2.09443e-05
4.73666e-05
-2.43767e-05
4.42241e-05
-2.71599e-05
3.90324e-05
-2.94594e-05
3.23375e-05
-3.14357e-05
2.44174e-05
-3.32003e-05
1.53817e-05
-3.47793e-05
5.25487e-06
-3.60732e-05
-5.94774e-06
-3.68148e-05
-1.81279e-05
-3.65363e-05
-3.09689e-05
-3.45845e-05
-4.37231e-05
-3.02565e-05
-5.49105e-05
-2.31605e-05
-6.1985e-05
-1.38686e-05
-6.12033e-05
-4.70693e-06
-4.82422e-05
-2.03889e-05
-2.69668e-06
1.66233e-05
-7.6632e-06
3.77022e-05
-1.26828e-05
4.83103e-05
-1.6748e-05
5.15952e-05
-1.96438e-05
5.02623e-05
-2.15352e-05
4.61155e-05
-2.27309e-05
4.0228e-05
-2.35633e-05
3.31699e-05
-2.43316e-05
2.51856e-05
-2.52703e-05
1.63204e-05
-2.65216e-05
6.50621e-06
-2.80958e-05
-4.37359e-06
-2.98112e-05
-1.64126e-05
-3.12173e-05
-2.95627e-05
-3.15311e-05
-4.34094e-05
-2.96736e-05
-5.67679e-05
-2.45826e-05
-6.7076e-05
-1.60246e-05
-6.97613e-05
-5.98778e-06
-5.8279e-05
-2.63767e-05
-3.62564e-06
2.02489e-05
-9.15549e-06
4.3232e-05
-1.36032e-05
5.2758e-05
-1.6122e-05
5.4114e-05
-1.68935e-05
5.10338e-05
-1.64375e-05
4.56595e-05
-1.53228e-05
3.91133e-05
-1.4062e-05
3.19091e-05
-1.30843e-05
2.4208e-05
-1.27339e-05
1.597e-05
-1.32661e-05
7.0384e-06
-1.48219e-05
-2.81776e-06
-1.73667e-05
-1.38677e-05
-2.05796e-05
-2.63499e-05
-2.36984e-05
-4.02906e-05
-2.53905e-05
-5.50758e-05
-2.38653e-05
-6.86012e-05
-1.76466e-05
-7.598e-05
-7.56117e-06
-6.83644e-05
-3.39379e-05
-5.24329e-06
2.54922e-05
-1.12268e-05
4.92156e-05
-1.4145e-05
5.56762e-05
-1.38767e-05
5.38457e-05
-1.13594e-05
4.85165e-05
-7.60349e-06
4.19037e-05
-3.45181e-06
3.49616e-05
4.4309e-07
2.80142e-05
3.58129e-06
2.10698e-05
5.56664e-06
1.39847e-05
6.07617e-06
6.52888e-06
4.8565e-06
-1.59808e-06
1.76503e-06
-1.07762e-05
-3.1183e-06
-2.14665e-05
-9.27155e-06
-3.41374e-05
-1.5406e-05
-4.89413e-05
-1.92025e-05
-6.48048e-05
-1.76548e-05
-7.75277e-05
-9.26045e-06
-7.67588e-05
-4.31983e-05
-7.72299e-06
3.32152e-05
-1.3098e-05
5.45906e-05
-1.2351e-05
5.49292e-05
-7.30808e-06
4.88028e-05
-7.84879e-08
4.12869e-05
7.84312e-06
3.3982e-05
1.54705e-05
2.73343e-05
2.21638e-05
2.13208e-05
2.74867e-05
1.57469e-05
3.11034e-05
1.0368e-05
3.27136e-05
4.91862e-06
3.20188e-05
-9.03255e-07
2.87265e-05
-7.48388e-06
2.26154e-05
-1.53555e-05
1.37415e-05
-2.52634e-05
2.88418e-06
-3.8084e-05
-7.72611e-06
-5.41945e-05
-1.38003e-05
-7.14535e-05
-1.03163e-05
-8.02427e-05
-5.35146e-05
-1.0318e-05
4.35332e-05
-1.09501e-05
5.52226e-05
-2.38694e-06
4.63661e-05
9.91128e-06
3.65046e-05
2.28367e-05
2.83615e-05
3.49355e-05
2.18833e-05
4.55238e-05
1.6746e-05
5.42778e-05
1.25668e-05
6.10262e-05
8.99851e-06
6.56323e-05
5.76185e-06
6.79269e-05
2.62405e-06
6.76648e-05
-6.41246e-07
6.44926e-05
-4.31159e-06
5.79352e-05
-8.79816e-06
4.74699e-05
-1.47981e-05
3.28655e-05
-2.34795e-05
1.51465e-05
-3.64755e-05
-1.54259e-06
-5.47644e-05
-8.47768e-06
-7.33076e-05
-6.19923e-05
-6.17406e-06
4.97073e-05
9.09033e-06
3.99582e-05
3.04325e-05
2.50239e-05
5.02742e-05
1.66629e-05
6.70734e-05
1.15622e-05
8.08101e-05
8.14666e-06
9.17672e-05
5.78885e-06
0.000100248
4.08602e-06
0.000106483
2.76323e-06
0.000110601
1.64453e-06
0.000112612
6.12457e-07
0.000112404
-4.32912e-07
0.000109685
-1.59223e-06
0.00010392
-3.03343e-06
9.42002e-05
-5.07847e-06
7.91596e-05
-8.43896e-06
5.73859e-05
-1.47018e-05
2.94605e-05
-2.68391e-05
3.60849e-06
-4.74556e-05
-5.83838e-05
4.97073e-05
8.96655e-05
0.000114689
0.000131352
0.000142915
0.000151061
0.00015685
0.000160936
0.000163699
0.000165344
0.000165956
0.000165523
0.000163931
0.000160898
0.000155819
0.00014738
0.000132678
0.000105839
5.83838e-05
)
;

boundaryField
{
    movingWall
    {
        type            calculated;
        value           uniform 0;
    }
    fixedWalls
    {
        type            calculated;
        value           uniform 0;
    }
    frontAndBack
    {
        type            empty;
        value           nonuniform List<scalar> 0();
    }
}


// ************************************************************************* //
