/*--------------------------------*- C++ -*----------------------------------*\
  =========                 |
  \\      /  F ield         | OpenFOAM: The Open Source CFD Toolbox
   \\    /   O peration     | Website:  https://openfoam.org
    \\  /    A nd           | Version:  8
     \\/     M anipulation  |
\*---------------------------------------------------------------------------*/
FoamFile
{
    version     2.0;
    format      ascii;
    class       volVectorField;
    location    "0.2";
    object      U;
}
// * * * * * * * * * * * * * * * * * * * * * * * * * * * * * * * * * * * * * //

dimensions      [0 1 -1 0 0 0 0];

internalField   nonuniform List<vector> 
400
(
(0.000957982 -0.000958589 0)
(0.000359343 0.000515935 0)
(-0.00501321 0.00226194 0)
(-0.0141156 0.00344719 0)
(-0.0253852 0.00403314 0)
(-0.0373809 0.00411386 0)
(-0.0488645 0.003784 0)
(-0.0587923 0.0031156 0)
(-0.0662875 0.00216202 0)
(-0.0706328 0.000976395 0)
(-0.0713055 -0.000367442 0)
(-0.0680521 -0.00175975 0)
(-0.0609825 -0.00304995 0)
(-0.0506545 -0.00405557 0)
(-0.0381139 -0.0045855 0)
(-0.0248592 -0.00447636 0)
(-0.0126984 -0.00363862 0)
(-0.00348737 -0.00210774 0)
(0.00126772 -0.000162135 0)
(0.00118966 0.00115362 0)
(-0.000453179 -0.000455145 0)
(-0.00692349 0.00688261 0)
(-0.0234562 0.0144866 0)
(-0.0473639 0.0197686 0)
(-0.0755045 0.0223765 0)
(-0.104902 0.0225144 0)
(-0.132776 0.0205064 0)
(-0.156669 0.0166736 0)
(-0.174498 0.011323 0)
(-0.184606 0.00479963 0)
(-0.185856 -0.0024458 0)
(-0.177782 -0.0098085 0)
(-0.16076 -0.0165245 0)
(-0.136147 -0.0217222 0)
(-0.106314 -0.0245363 0)
(-0.0745376 -0.0242778 0)
(-0.044638 -0.0206441 0)
(-0.0203971 -0.0139401 0)
(-0.00495116 -0.0054311 0)
(0.000118376 0.00141215 0)
(-0.00234862 0.0049532 0)
(-0.0155827 0.0236603 0)
(-0.0433721 0.0409474 0)
(-0.0807034 0.0528344 0)
(-0.12307 0.0585161 0)
(-0.166511 0.0582563 0)
(-0.207267 0.0526822 0)
(-0.241957 0.0425259 0)
(-0.267711 0.028578 0)
(-0.282253 0.0117687 0)
(-0.284049 -0.00671434 0)
(-0.272486 -0.0253451 0)
(-0.24809 -0.042267 0)
(-0.212683 -0.0554209 0)
(-0.169437 -0.0628088 0)
(-0.122734 -0.0628831 0)
(-0.0777065 -0.0550194 0)
(-0.039504 -0.0399898 0)
(-0.0128583 -0.0205036 0)
(-0.00149548 -0.00259085 0)
(-0.00403941 0.0150434 0)
(-0.0237105 0.050129 0)
(-0.0623564 0.0797127 0)
(-0.112271 0.0993857 0)
(-0.167496 0.108248 0)
(-0.223261 0.10678 0)
(-0.275117 0.096011 0)
(-0.319077 0.0771865 0)
(-0.351751 0.0517033 0)
(-0.370442 0.0212288 0)
(-0.37329 -0.0121311 0)
(-0.359482 -0.0457159 0)
(-0.329496 -0.0763284 0)
(-0.285313 -0.10044 0)
(-0.230536 -0.114618 0)
(-0.170304 -0.11616 0)
(-0.110846 -0.103878 0)
(-0.0587055 -0.0788496 0)
(-0.0205751 -0.0451026 0)
(-0.00293983 -0.0108162 0)
(-0.0055061 0.0292932 0)
(-0.0310988 0.0855313 0)
(-0.0799709 0.129733 0)
(-0.141705 0.157966 0)
(-0.208857 0.169784 0)
(-0.275924 0.166191 0)
(-0.337934 0.14879 0)
(-0.390498 0.119429 0)
(-0.429886 0.0801724 0)
(-0.453083 0.0334703 0)
(-0.457906 -0.0176035 0)
(-0.443225 -0.0691827 0)
(-0.40924 -0.116608 0)
(-0.357785 -0.15468 0)
(-0.292574 -0.178224 0)
(-0.219282 -0.182986 0)
(-0.145199 -0.166759 0)
(-0.0784842 -0.130501 0)
(-0.0282627 -0.0792112 0)
(-0.00425758 -0.0229801 0)
(-0.0068101 0.0472796 0)
(-0.0378409 0.129262 0)
(-0.0962423 0.190392 0)
(-0.169012 0.227932 0)
(-0.24727 0.242467 0)
(-0.324849 0.235906 0)
(-0.396396 0.21064 0)
(-0.457276 0.169224 0)
(-0.50356 0.114404 0)
(-0.531988 0.0493799 0)
(-0.540032 -0.0218607 0)
(-0.526107 -0.0942812 0)
(-0.489885 -0.161722 0)
(-0.432716 -0.21714 0)
(-0.358083 -0.253257 0)
(-0.27194 -0.2637 0)
(-0.182601 -0.24455 0)
(-0.100109 -0.195967 0)
(-0.0365852 -0.123482 0)
(-0.00563345 -0.039132 0)
(-0.00800089 0.0686746 0)
(-0.0440448 0.180706 0)
(-0.111251 0.26096 0)
(-0.19418 0.308512 0)
(-0.282602 0.325548 0)
(-0.369798 0.315305 0)
(-0.450182 0.281216 0)
(-0.519047 0.226636 0)
(-0.572416 0.154974 0)
(-0.606878 0.0700698 0)
(-0.619568 -0.0233355 0)
(-0.608326 -0.119187 0)
(-0.572045 -0.209895 0)
(-0.511218 -0.286456 0)
(-0.42865 -0.339102 0)
(-0.330175 -0.358624 0)
(-0.22494 -0.338408 0)
(-0.125061 -0.276807 0)
(-0.0463423 -0.179221 0)
(-0.00727802 -0.0597624 0)
(-0.00911225 0.0932138 0)
(-0.0497898 0.239252 0)
(-0.12503 0.340588 0)
(-0.217049 0.398698 0)
(-0.314368 0.417971 0)
(-0.409862 0.403439 0)
(-0.497914 0.359851 0)
(-0.573967 0.291464 0)
(-0.634204 0.202294 0)
(-0.675232 0.0966393 0)
(-0.693927 -0.0202706 0)
(-0.687513 -0.141652 0)
(-0.653893 -0.258704 0)
(-0.5923 -0.360491 0)
(-0.504286 -0.434413 0)
(-0.394924 -0.467608 0)
(-0.273701 -0.449469 0)
(-0.154766 -0.375035 0)
(-0.0583739 -0.248439 0)
(-0.0094175 -0.085831 0)
(-0.0101776 0.120677 0)
(-0.0551622 0.304293 0)
(-0.137607 0.428279 0)
(-0.237353 0.497146 0)
(-0.341756 0.518179 0)
(-0.443485 0.498738 0)
(-0.537166 0.445208 0)
(-0.618692 0.362858 0)
(-0.684715 0.256229 0)
(-0.732126 0.129841 0)
(-0.757751 -0.0109532 0)
(-0.758284 -0.159084 0)
(-0.73054 -0.30497 0)
(-0.672122 -0.435997 0)
(-0.582646 -0.536595 0)
(-0.465482 -0.589445 0)
(-0.329497 -0.578349 0)
(-0.190383 -0.492843 0)
(-0.0735347 -0.333794 0)
(-0.0123093 -0.11878 0)
(-0.011265 0.150913 0)
(-0.0603597 0.375251 0)
(-0.149149 0.522839 0)
(-0.254865 0.602014 0)
(-0.363759 0.623834 0)
(-0.468569 0.598642 0)
(-0.564543 0.53484 0)
(-0.648435 0.438835 0)
(-0.717773 0.315606 0)
(-0.770139 0.169619 0)
(-0.802674 0.00590271 0)
(-0.811823 -0.168781 0)
(-0.793407 -0.344749 0)
(-0.74317 -0.508314 0)
(-0.658097 -0.641183 0)
(-0.538635 -0.721035 0)
(-0.391467 -0.724317 0)
(-0.232559 -0.632037 0)
(-0.0927 -0.438398 0)
(-0.0162781 -0.16056 0)
(-0.0125399 0.183943 0)
(-0.0658689 0.451695 0)
(-0.160211 0.62286 0)
(-0.269638 0.710779 0)
(-0.379359 0.731502 0)
(-0.482613 0.699195 0)
(-0.575795 0.624723 0)
(-0.657061 0.515771 0)
(-0.72534 0.377668 0)
(-0.779425 0.214543 0)
(-0.817304 0.0306166 0)
(-0.835679 -0.168371 0)
(-0.829754 -0.373564 0)
(-0.793484 -0.571254 0)
(-0.720704 -0.741279 0)
(-0.607594 -0.856387 0)
(-0.456438 -0.88411 0)
(-0.281039 -0.793108 0)
(-0.116768 -0.56547 0)
(-0.0217754 -0.2137 0)
(-0.0143726 0.220221 0)
(-0.0727348 0.533578 0)
(-0.172037 0.726718 0)
(-0.282209 0.820001 0)
(-0.387609 0.83628 0)
(-0.482703 0.79461 0)
(-0.565808 0.708795 0)
(-0.637153 0.587917 0)
(-0.697673 0.437557 0)
(-0.747968 0.261236 0)
(-0.787506 0.0619003 0)
(-0.813958 -0.15647 0)
(-0.822628 -0.386956 0)
(-0.806204 -0.617326 0)
(-0.755327 -0.827218 0)
(-0.660764 -0.985601 0)
(-0.517739 -1.0504 0)
(-0.333996 -0.973789 0)
(-0.146609 -0.7177 0)
(-0.0294718 -0.281434 0)
(-0.0175288 0.261117 0)
(-0.0829478 0.6216 0)
(-0.18683 0.832475 0)
(-0.293553 0.924909 0)
(-0.387287 0.931269 0)
(-0.465034 0.87677 0)
(-0.528137 0.778546 0)
(-0.579713 0.64706 0)
(-0.623311 0.48797 0)
(-0.661873 0.303937 0)
(-0.696962 0.0962663 0)
(-0.728006 -0.133451 0)
(-0.751418 -0.381345 0)
(-0.759705 -0.638458 0)
(-0.741072 -0.886751 0)
(-0.680502 -1.0941 0)
(-0.563627 -1.21003 0)
(-0.386864 -1.16694 0)
(-0.182855 -0.896099 0)
(-0.0403834 -0.367917 0)
(-0.0234976 0.309797 0)
(-0.099931 0.717568 0)
(-0.207674 0.937381 0)
(-0.304204 1.01851 0)
(-0.375427 1.00674 0)
(-0.423188 0.934662 0)
(-0.453399 0.822751 0)
(-0.472924 0.682481 0)
(-0.488367 0.519214 0)
(-0.505296 0.33449 0)
(-0.527716 0.127761 0)
(-0.557438 -0.102116 0)
(-0.593071 -0.355123 0)
(-0.628541 -0.627313 0)
(-0.651436 -0.906072 0)
(-0.642091 -1.16261 0)
(-0.575272 -1.34229 0)
(-0.43035 -1.3576 0)
(-0.225179 -1.09779 0)
(-0.0559586 -0.478386 0)
(-0.0349565 0.372625 0)
(-0.128824 0.824292 0)
(-0.23714 1.03634 0)
(-0.311096 1.08982 0)
(-0.343169 1.04884 0)
(-0.343833 0.9538 0)
(-0.325383 0.827556 0)
(-0.299022 0.681528 0)
(-0.274372 0.520035 0)
(-0.259341 0.343147 0)
(-0.260141 0.148449 0)
(-0.281081 -0.0678277 0)
(-0.323734 -0.30966 0)
(-0.38521 -0.579157 0)
(-0.455349 -0.872073 0)
(-0.513159 -1.1687 0)
(-0.524197 -1.4183 0)
(-0.446884 -1.51952 0)
(-0.270094 -1.31212 0)
(-0.0777156 -0.618843 0)
(-0.0559272 0.461441 0)
(-0.175013 0.943712 0)
(-0.271593 1.11792 0)
(-0.298729 1.12051 0)
(-0.266057 1.03786 0)
(-0.197698 0.916059 0)
(-0.113466 0.777505 0)
(-0.028409 0.631391 0)
(0.0459408 0.479735 0)
(0.100583 0.320699 0)
(0.128202 0.15019 0)
(0.122741 -0.0375268 0)
(0.0796957 -0.249581 0)
(-0.00248639 -0.493771 0)
(-0.11921 -0.775713 0)
(-0.253783 -1.09035 0)
(-0.369006 -1.40238 0)
(-0.404355 -1.61206 0)
(-0.305054 -1.5149 0)
(-0.104997 -0.795644 0)
(-0.0894196 0.59821 0)
(-0.235418 1.06932 0)
(-0.282858 1.15329 0)
(-0.217364 1.07745 0)
(-0.0842042 0.945424 0)
(0.0762592 0.80024 0)
(0.239071 0.658037 0)
(0.388496 0.522503 0)
(0.514045 0.391865 0)
(0.608121 0.262076 0)
(0.66436 0.127871 0)
(0.676616 -0.0172507 0)
(0.638604 -0.181664 0)
(0.544356 -0.376523 0)
(0.390506 -0.615734 0)
(0.182728 -0.91136 0)
(-0.0513026 -1.25574 0)
(-0.246042 -1.57752 0)
(-0.295966 -1.65931 0)
(-0.127318 -1.01519 0)
(-0.122127 0.813866 0)
(-0.264435 1.16056 0)
(-0.167469 1.07375 0)
(0.0634382 0.903867 0)
(0.331031 0.735727 0)
(0.591653 0.588052 0)
(0.826557 0.462747 0)
(1.02666 0.355439 0)
(1.18742 0.260189 0)
(1.30597 0.171299 0)
(1.37931 0.0834025 0)
(1.40329 -0.00915639 0)
(1.37183 -0.113447 0)
(1.27628 -0.239901 0)
(1.1056 -0.40495 0)
(0.849844 -0.632888 0)
(0.510832 -0.94895 0)
(0.126395 -1.34249 0)
(-0.162296 -1.65171 0)
(-0.100901 -1.25512 0)
(-0.0208168 1.03083 0)
(-0.0260955 1.07383 0)
(0.377629 0.786816 0)
(0.827423 0.567434 0)
(1.20891 0.414494 0)
(1.52123 0.304573 0)
(1.77387 0.224079 0)
(1.97337 0.16301 0)
(2.12498 0.113847 0)
(2.23236 0.0712714 0)
(2.29698 0.0313746 0)
(2.31782 -0.00922584 0)
(2.2909 -0.054431 0)
(2.20813 -0.11017 0)
(2.05527 -0.187458 0)
(1.80966 -0.308352 0)
(1.43722 -0.514421 0)
(0.899287 -0.86123 0)
(0.306204 -1.31742 0)
(0.144166 -1.30743 0)
(1.14952 0.564116 0)
(1.47994 0.498957 0)
(2.07228 0.313179 0)
(2.53163 0.193956 0)
(2.82504 0.12351 0)
(3.02213 0.0800971 0)
(3.16224 0.0526026 0)
(3.26257 0.0345071 0)
(3.3326 0.0217187 0)
(3.37799 0.0117614 0)
(3.40162 0.00312031 0)
(3.40419 -0.00524934 0)
(3.38446 -0.0144044 0)
(3.33859 -0.025831 0)
(3.25811 -0.0425553 0)
(3.12507 -0.0718053 0)
(2.89742 -0.131489 0)
(2.46772 -0.260525 0)
(1.77712 -0.499212 0)
(1.29414 -0.61239 0)
)
;

boundaryField
{
    movingWall
    {
        type            fixedValue;
        value           uniform (4 0 0);
    }
    fixedWalls
    {
        type            noSlip;
    }
    frontAndBack
    {
        type            empty;
    }
}


// ************************************************************************* //
