/*--------------------------------*- C++ -*----------------------------------*\
  =========                 |
  \\      /  F ield         | OpenFOAM: The Open Source CFD Toolbox
   \\    /   O peration     | Website:  https://openfoam.org
    \\  /    A nd           | Version:  8
     \\/     M anipulation  |
\*---------------------------------------------------------------------------*/
FoamFile
{
    version     2.0;
    format      ascii;
    class       volScalarField;
    location    "0.3";
    object      p;
}
// * * * * * * * * * * * * * * * * * * * * * * * * * * * * * * * * * * * * * //

dimensions      [0 2 -2 0 0 0 0];

internalField   nonuniform List<scalar> 
400
(
3.13655e-05
-0.0233421
-0.0510858
-0.071915
-0.0798166
-0.0722492
-0.0488973
-0.0108974
0.0395106
0.0990359
0.163317
0.227022
0.284202
0.328969
0.356467
0.364012
0.352238
0.325972
0.294606
0.271594
0.0232939
-0.00092357
-0.0225915
-0.0367373
-0.0409169
-0.0334167
-0.0138536
0.0170622
0.0577386
0.105698
0.15755
0.209083
0.255574
0.292356
0.315612
0.323286
0.315931
0.297085
0.272289
0.248898
0.052674
0.0192502
-0.00393357
-0.0166369
-0.019998
-0.0133383
0.00347968
0.0298921
0.0647412
0.106146
0.151373
0.196849
0.238397
0.271734
0.293195
0.300576
0.293968
0.275844
0.248627
0.21587
0.0772831
0.0316042
0.00321205
-0.0110373
-0.0153803
-0.0100776
0.00470437
0.0284476
0.0603174
0.0988866
0.141862
0.185976
0.227134
0.260859
0.283003
0.29065
0.28313
0.262035
0.227493
0.181115
0.0893324
0.031312
-0.00313826
-0.0198934
-0.0258671
-0.022082
-0.00891759
0.0132006
0.0437742
0.0818089
0.125385
0.171408
0.215641
0.253076
0.278661
0.288326
0.280312
0.255295
0.2115
0.14957
0.0827339
0.0130317
-0.027478
-0.0470033
-0.0547953
-0.0524685
-0.0404908
-0.0190971
0.0116241
0.0511635
0.0979982
0.149178
0.200201
0.245279
0.27805
0.292779
0.286138
0.257612
0.203541
0.124156
0.0523102
-0.0282287
-0.0744286
-0.0966093
-0.106136
-0.105097
-0.0939302
-0.0725564
-0.0405267
0.00226959
0.0548396
0.114476
0.176414
0.233919
0.278918
0.303377
0.30167
0.271464
0.206692
0.107337
-0.0066798
-0.0971773
-0.148461
-0.172885
-0.183849
-0.183872
-0.173278
-0.151539
-0.11749
-0.0701715
-0.00977845
0.0614886
0.138789
0.214419
0.278238
0.319161
0.32821
0.300089
0.225066
0.102544
-0.0987733
-0.198427
-0.253986
-0.279906
-0.291728
-0.292473
-0.282323
-0.260178
-0.223934
-0.171466
-0.101764
-0.0160562
0.0811648
0.181451
0.272394
0.339049
0.367683
0.348198
0.264898
0.115579
-0.228418
-0.336621
-0.395309
-0.421356
-0.432867
-0.433611
-0.423682
-0.401307
-0.363203
-0.305692
-0.226019
-0.123774
-0.00237712
0.12957
0.257539
0.362055
0.422965
0.422696
0.335812
0.156256
-0.400217
-0.516702
-0.576606
-0.600114
-0.608894
-0.60796
-0.597474
-0.574917
-0.535575
-0.473788
-0.384431
-0.264617
-0.115666
0.0547364
0.230685
0.388011
0.49851
0.533653
0.452499
0.240713
-0.619695
-0.74456
-0.802035
-0.817759
-0.818999
-0.812838
-0.799724
-0.776307
-0.736155
-0.671171
-0.573221
-0.436024
-0.257551
-0.043003
0.191912
0.419179
0.601586
0.695724
0.637079
0.394979
-0.895321
-1.02844
-1.07601
-1.07394
-1.05877
-1.04076
-1.02075
-0.994315
-0.952895
-0.885469
-0.780289
-0.62684
-0.418459
-0.155951
0.14767
0.462946
0.744371
0.930279
0.922585
0.660923
-1.24336
-1.38165
-1.40356
-1.36541
-1.31881
-1.27804
-1.24392
-1.21023
-1.16558
-1.09541
-0.983829
-0.815441
-0.577888
-0.265661
0.114121
0.534879
0.946481
1.26813
1.35816
1.10682
-1.69893
-1.82714
-1.78995
-1.68405
-1.58278
-1.50352
-1.44515
-1.39805
-1.3467
-1.27214
-1.15382
-0.971097
-0.705269
-0.342995
0.117866
0.659741
1.23581
1.75101
2.01514
1.8444
-2.33848
-2.40411
-2.23869
-2.01356
-1.82529
-1.68797
-1.59394
-1.52693
-1.46516
-1.38405
-1.25787
-1.06052
-0.766723
-0.35435
0.191002
0.867967
1.64557
2.42861
2.98845
3.04727
-3.32578
-3.17472
-2.74873
-2.32912
-2.01349
-1.79764
-1.6587
-1.56817
-1.49473
-1.4067
-1.27266
-1.06103
-0.739797
-0.277248
0.356284
1.18353
2.20494
3.34995
4.39552
4.97948
-5.06692
-4.2211
-3.28516
-2.57877
-2.09813
-1.79185
-1.6096
-1.50185
-1.42362
-1.33509
-1.19935
-0.979952
-0.638622
-0.133115
0.585376
1.57377
2.88431
4.51754
6.39785
8.18677
-8.71025
-5.57057
-3.57768
-2.52421
-1.91171
-1.56034
-1.37933
-1.2927
-1.24113
-1.17896
-1.06694
-0.866723
-0.537412
-0.0289357
0.725892
1.82614
3.4108
5.67387
9.10194
13.9216
-15.5886
-6.86803
-3.05899
-1.78995
-1.24209
-0.989725
-0.912888
-0.922274
-0.954121
-0.964961
-0.919627
-0.784164
-0.520563
-0.0819791
0.600391
1.64753
3.30082
6.11764
11.777
22.3621
)
;

boundaryField
{
    movingWall
    {
        type            zeroGradient;
    }
    fixedWalls
    {
        type            zeroGradient;
    }
    frontAndBack
    {
        type            empty;
    }
}


// ************************************************************************* //
