/*--------------------------------*- C++ -*----------------------------------*\
  =========                 |
  \\      /  F ield         | OpenFOAM: The Open Source CFD Toolbox
   \\    /   O peration     | Website:  https://openfoam.org
    \\  /    A nd           | Version:  8
     \\/     M anipulation  |
\*---------------------------------------------------------------------------*/
FoamFile
{
    version     2.0;
    format      ascii;
    class       surfaceScalarField;
    location    "0.3";
    object      phi;
}
// * * * * * * * * * * * * * * * * * * * * * * * * * * * * * * * * * * * * * //

dimensions      [0 3 -1 0 0 0 0];

internalField   nonuniform List<scalar> 
760
(
5.14675e-08
-5.17309e-08
-1.02421e-07
1.53888e-07
-4.70803e-07
3.68382e-07
-9.84569e-07
5.13768e-07
-1.56914e-06
5.84576e-07
-2.1581e-06
5.88954e-07
-2.6949e-06
5.36803e-07
-3.1319e-06
4.37e-07
-3.42932e-06
2.97422e-07
-3.556e-06
1.26683e-07
-3.49221e-06
-6.37848e-08
-3.23398e-06
-2.58234e-07
-2.79762e-06
-4.36358e-07
-2.22303e-06
-5.74597e-07
-1.57384e-06
-6.49194e-07
-9.33051e-07
-6.40788e-07
-3.92966e-07
-5.40086e-07
-3.93049e-08
-3.53659e-07
7.50383e-08
-1.14338e-07
7.50436e-08
-1.50774e-07
9.90422e-08
-7.51979e-07
7.55093e-07
-1.76726e-06
1.38366e-06
-3.07002e-06
1.81653e-06
-4.51099e-06
2.02554e-06
-5.94491e-06
2.02288e-06
-7.24084e-06
1.83273e-06
-8.28555e-06
1.48172e-06
-8.98557e-06
9.97446e-07
-9.27082e-06
4.11928e-07
-9.1009e-06
-2.33705e-07
-8.47318e-06
-8.85948e-07
-7.43063e-06
-1.47891e-06
-6.06631e-06
-1.93892e-06
-4.52155e-06
-2.19395e-06
-2.97456e-06
-2.18778e-06
-1.61757e-06
-1.89708e-06
-6.22353e-07
-1.34888e-06
-9.42694e-08
-6.42428e-07
-1.92218e-08
-3.91333e-07
4.90374e-07
-1.47407e-06
1.83783e-06
-3.10483e-06
3.01443e-06
-5.09512e-06
3.80682e-06
-7.24187e-06
4.17229e-06
-9.34856e-06
4.12957e-06
-1.12362e-05
3.72037e-06
-1.27488e-05
2.99435e-06
-1.37578e-05
2.00641e-06
-1.41676e-05
8.21711e-07
-1.39242e-05
-4.77129e-07
-1.3025e-05
-1.78513e-06
-1.15284e-05
-2.97551e-06
-9.55914e-06
-3.90817e-06
-7.30614e-06
-4.44695e-06
-5.00848e-06
-4.48543e-06
-2.92724e-06
-3.97832e-06
-1.30384e-06
-2.97228e-06
-3.0984e-07
-1.63643e-06
-3.29059e-07
-6.10874e-07
1.10125e-06
-2.15746e-06
3.38442e-06
-4.37401e-06
5.23097e-06
-6.99721e-06
6.43003e-06
-9.77275e-06
6.94783e-06
-1.24647e-05
6.82151e-06
-1.48613e-05
6.11696e-06
-1.67785e-05
4.91163e-06
-1.80643e-05
3.29217e-06
-1.86043e-05
1.3617e-06
-1.83313e-05
-7.50102e-07
-1.72366e-05
-2.87986e-06
-1.53812e-05
-4.83092e-06
-1.29044e-05
-6.3849e-06
-1.00248e-05
-7.32657e-06
-7.02819e-06
-7.48207e-06
-4.23975e-06
-6.76676e-06
-1.98004e-06
-5.23198e-06
-5.12386e-07
-3.10409e-06
-8.41444e-07
-8.07382e-07
1.90863e-06
-2.78702e-06
5.36405e-06
-5.55478e-06
7.99873e-06
-8.76883e-06
9.64407e-06
-1.21244e-05
1.03034e-05
-1.53523e-05
1.00495e-05
-1.82176e-05
8.9822e-06
-2.05177e-05
7.21176e-06
-2.20841e-05
4.85854e-06
-2.27864e-05
2.06402e-06
-2.25414e-05
-9.95055e-07
-2.13254e-05
-4.09584e-06
-1.91888e-05
-6.96759e-06
-1.62697e-05
-9.30399e-06
-1.28025e-05
-1.07937e-05
-9.11333e-06
-1.11713e-05
-5.5963e-06
-1.02838e-05
-2.66838e-06
-8.1599e-06
-7.08667e-07
-5.0638e-06
-1.55011e-06
-9.85462e-07
2.89409e-06
-3.3661e-06
7.74469e-06
-6.64808e-06
1.12807e-05
-1.0413e-05
1.3409e-05
-1.43082e-05
1.41986e-05
-1.8037e-05
1.37782e-05
-2.13482e-05
1.22934e-05
-2.40285e-05
9.89208e-06
-2.58982e-05
6.72821e-06
-2.68122e-05
2.97805e-06
-2.66674e-05
-1.13991e-06
-2.54152e-05
-5.34804e-06
-2.30806e-05
-9.3022e-06
-1.97836e-05
-1.26009e-05
-1.57594e-05
-1.48179e-05
-1.1367e-05
-1.55638e-05
-7.07511e-06
-1.45756e-05
-3.4178e-06
-1.18172e-05
-9.18581e-07
-7.56302e-06
-2.46869e-06
-1.14898e-06
4.04307e-06
-3.89967e-06
1.04954e-05
-7.65569e-06
1.50367e-05
-1.19261e-05
1.76793e-05
-1.6315e-05
1.85875e-05
-2.05046e-05
1.79678e-05
-2.4236e-05
1.60248e-05
-2.72928e-05
1.2949e-05
-2.94906e-05
8.92598e-06
-3.06721e-05
4.15955e-06
-3.07113e-05
-1.10072e-06
-2.95259e-05
-6.53347e-06
-2.70996e-05
-1.17284e-05
-2.35139e-05
-1.61867e-05
-1.89831e-05
-1.93487e-05
-1.38842e-05
-2.06626e-05
-8.76122e-06
-1.96986e-05
-4.28597e-06
-1.62925e-05
-1.16476e-06
-1.06842e-05
-3.63345e-06
-1.3005e-06
5.34357e-06
-4.39078e-06
1.35857e-05
-8.57475e-06
1.92207e-05
-1.32921e-05
2.23967e-05
-1.81098e-05
2.34052e-05
-2.26979e-05
2.25559e-05
-2.68002e-05
2.01271e-05
-3.02082e-05
1.6357e-05
-3.27419e-05
1.14597e-05
-3.42382e-05
5.65581e-06
-3.45492e-05
-7.89727e-07
-3.35524e-05
-7.53018e-06
-3.11754e-05
-1.41054e-05
-2.74361e-05
-1.9926e-05
-2.24977e-05
-2.42871e-05
-1.67264e-05
-2.64339e-05
-1.07285e-05
-2.56965e-05
-5.33027e-06
-2.16907e-05
-1.47066e-06
-1.45438e-05
-5.10412e-06
-1.44249e-06
6.78606e-06
-4.84247e-06
1.69856e-05
-9.3995e-06
2.37777e-05
-1.44843e-05
2.74815e-05
-1.96337e-05
2.85547e-05
-2.45175e-05
2.74397e-05
-2.88966e-05
2.45061e-05
-3.25857e-05
2.0046e-05
-3.54235e-05
1.42975e-05
-3.72529e-05
7.48529e-06
-3.7912e-05
-1.30706e-07
-3.72377e-05
-8.20439e-06
-3.50896e-05
-1.62536e-05
-3.13958e-05
-2.36198e-05
-2.62274e-05
-2.94556e-05
-1.98924e-05
-3.27689e-05
-1.30229e-05
-3.2566e-05
-6.60214e-06
-2.81115e-05
-1.86056e-06
-1.92854e-05
-6.96468e-06
-1.58057e-06
8.36662e-06
-5.26431e-06
2.06694e-05
-1.01291e-05
2.86425e-05
-1.54722e-05
3.28246e-05
-2.08094e-05
3.38918e-05
-2.58263e-05
3.24566e-05
-3.03208e-05
2.90007e-05
-3.41511e-05
2.38764e-05
-3.71953e-05
1.73417e-05
-3.93216e-05
9.6116e-06
-4.03698e-05
9.17482e-07
-4.01463e-05
-8.42789e-06
-3.84393e-05
-1.79606e-05
-3.50641e-05
-2.69949e-05
-2.99516e-05
-3.45681e-05
-2.32816e-05
-3.9439e-05
-1.56415e-05
-4.0206e-05
-8.14155e-06
-3.56114e-05
-2.36084e-06
-2.50661e-05
-9.32551e-06
-1.72894e-06
1.00956e-05
-5.68327e-06
2.46237e-05
-1.07797e-05
3.37389e-05
-1.62322e-05
3.82771e-05
-2.15489e-05
3.92085e-05
-2.64555e-05
3.73633e-05
-3.08133e-05
3.33584e-05
-3.45505e-05
2.76135e-05
-3.76105e-05
2.04017e-05
-3.99133e-05
1.19143e-05
-4.13264e-05
2.3306e-06
-4.16478e-05
-8.10645e-06
-4.0606e-05
-1.90024e-05
-3.78929e-05
-2.9708e-05
-3.32522e-05
-3.92088e-05
-2.66461e-05
-4.60451e-05
-1.85015e-05
-4.83506e-05
-9.96797e-06
-4.4145e-05
-3.00219e-06
-3.20319e-05
-1.23277e-05
-1.91935e-06
1.20149e-05
-6.1586e-06
2.8863e-05
-1.13975e-05
3.89778e-05
-1.67547e-05
4.36344e-05
-2.17562e-05
4.421e-05
-2.62049e-05
4.18119e-05
-3.0061e-05
3.72146e-05
-3.33549e-05
3.09074e-05
-3.61252e-05
2.3172e-05
-3.83741e-05
1.41632e-05
-4.00308e-05
3.98726e-06
-4.09205e-05
-7.21672e-06
-4.07435e-05
-1.91794e-05
-3.90807e-05
-3.13708e-05
-3.54596e-05
-4.28299e-05
-2.95301e-05
-5.19747e-05
-2.13941e-05
-5.64866e-05
-1.20631e-05
-5.34759e-05
-3.82253e-06
-4.02725e-05
-1.61502e-05
-2.21548e-06
1.42304e-05
-6.79936e-06
3.34469e-05
-1.20646e-05
4.4243e-05
-1.70341e-05
4.86038e-05
-2.13056e-05
4.84815e-05
-2.4818e-05
4.53243e-05
-2.7678e-05
4.00747e-05
-3.00532e-05
3.32827e-05
-3.2106e-05
2.52248e-05
-3.39493e-05
1.60065e-05
-3.56089e-05
5.6469e-06
-3.69824e-05
-5.8432e-06
-3.77946e-05
-1.83672e-05
-3.75624e-05
-3.1603e-05
-3.56082e-05
-4.47841e-05
-3.11982e-05
-5.63847e-05
-2.39147e-05
-6.377e-05
-1.4337e-05
-6.30537e-05
-4.86951e-06
-4.974e-05
-2.10197e-05
-2.7356e-06
1.6966e-05
-7.77658e-06
3.84878e-05
-1.2875e-05
4.93414e-05
-1.70094e-05
5.27383e-05
-1.99619e-05
5.1434e-05
-2.18994e-05
4.72618e-05
-2.3134e-05
4.13093e-05
-2.40029e-05
3.41515e-05
-2.48099e-05
2.60318e-05
-2.57944e-05
1.69911e-05
-2.7103e-05
6.95545e-06
-2.8748e-05
-4.19815e-06
-3.0546e-05
-1.65692e-05
-3.20364e-05
-3.01126e-05
-3.2413e-05
-4.44075e-05
-3.05579e-05
-5.82399e-05
-2.53603e-05
-6.89676e-05
-1.65589e-05
-7.1855e-05
-6.19574e-06
-6.01032e-05
-2.72155e-05
-3.68158e-06
2.06476e-05
-9.29837e-06
4.41046e-05
-1.38177e-05
5.38608e-05
-1.63798e-05
5.53004e-05
-1.71683e-05
5.22225e-05
-1.67093e-05
4.68028e-05
-1.55791e-05
4.01791e-05
-1.42979e-05
3.28703e-05
-1.33031e-05
2.50369e-05
-1.29471e-05
1.66351e-05
-1.34939e-05
7.50221e-06
-1.50925e-05
-2.59954e-06
-1.77138e-05
-1.39478e-05
-2.10359e-05
-2.67905e-05
-2.42814e-05
-4.1162e-05
-2.60791e-05
-5.64421e-05
-2.45718e-05
-7.0475e-05
-1.82101e-05
-7.82166e-05
-7.81832e-06
-7.0495e-05
-3.50338e-05
-5.33711e-06
2.59847e-05
-1.14308e-05
5.01984e-05
-1.44063e-05
5.68363e-05
-1.41381e-05
5.50322e-05
-1.15772e-05
4.96616e-05
-7.74803e-06
4.29736e-05
-3.50646e-06
3.59375e-05
4.83442e-07
2.88804e-05
3.71068e-06
2.18097e-05
5.76796e-06
1.45778e-05
6.32055e-06
6.94963e-06
5.10259e-06
-1.38158e-06
1.95928e-06
-1.08045e-05
-3.03879e-06
-2.17924e-05
-9.36844e-06
-3.48324e-05
-1.57147e-05
-5.00959e-05
-1.96882e-05
-6.65015e-05
-1.81668e-05
-7.97379e-05
-9.55686e-06
-7.9105e-05
-4.45906e-05
-7.88762e-06
3.38723e-05
-1.33938e-05
5.57046e-05
-1.26561e-05
5.60986e-05
-7.52998e-06
4.99061e-05
-1.60211e-07
4.22918e-05
7.93226e-06
3.48811e-05
1.57435e-05
2.81263e-05
2.2619e-05
2.20049e-05
2.81097e-05
1.6319e-05
3.1868e-05
1.08196e-05
3.3581e-05
5.23655e-06
3.29364e-05
-7.36904e-07
2.96262e-05
-7.4943e-06
2.34123e-05
-1.55785e-05
1.4336e-05
-2.57561e-05
3.17923e-06
-3.89391e-05
-7.77783e-06
-5.55444e-05
-1.41121e-05
-7.34037e-05
-1.06066e-05
-8.26104e-05
-5.51973e-05
-1.05849e-05
4.44573e-05
-1.1294e-05
5.64137e-05
-2.59405e-06
4.73986e-05
9.94344e-06
3.73686e-05
2.3148e-05
2.90873e-05
3.55356e-05
2.24935e-05
4.64045e-05
1.72573e-05
5.54187e-05
1.29907e-05
6.23971e-05
9.34061e-06
6.71938e-05
6.02283e-06
6.96299e-05
2.8005e-06
6.94489e-05
-5.55906e-07
6.62833e-05
-4.32875e-06
5.96399e-05
-8.93504e-06
4.89712e-05
-1.50874e-05
3.40204e-05
-2.39884e-05
1.58145e-05
-3.73385e-05
-1.40248e-06
-5.61867e-05
-8.6442e-06
-7.53687e-05
-6.38415e-05
-6.43035e-06
5.08876e-05
9.11081e-06
4.08725e-05
3.09027e-05
2.56067e-05
5.11896e-05
1.70817e-05
6.83962e-05
1.18807e-05
8.24977e-05
8.39194e-06
9.37757e-05
5.97937e-06
0.000102533
4.23392e-06
0.000108998
2.87536e-06
0.000113297
1.72403e-06
0.000115437
6.60066e-07
0.000115299
-4.18135e-07
0.000112583
-1.61284e-06
0.000106742
-3.09368e-06
9.68424e-05
-5.18775e-06
8.14765e-05
-8.62258e-06
5.91728e-05
-1.50348e-05
3.04914e-05
-2.75053e-05
3.84993e-06
-4.87273e-05
-5.99916e-05
5.08876e-05
9.17601e-05
0.000117367
0.000134449
0.000146329
0.000154721
0.000160701
0.000164934
0.00016781
0.000169534
0.000170194
0.000169776
0.000168163
0.000165069
0.000159881
0.000151259
0.000136224
0.000108719
5.99916e-05
)
;

boundaryField
{
    movingWall
    {
        type            calculated;
        value           uniform 0;
    }
    fixedWalls
    {
        type            calculated;
        value           uniform 0;
    }
    frontAndBack
    {
        type            empty;
        value           nonuniform List<scalar> 0();
    }
}


// ************************************************************************* //
