/*--------------------------------*- C++ -*----------------------------------*\
  =========                 |
  \\      /  F ield         | OpenFOAM: The Open Source CFD Toolbox
   \\    /   O peration     | Website:  https://openfoam.org
    \\  /    A nd           | Version:  8
     \\/     M anipulation  |
\*---------------------------------------------------------------------------*/
FoamFile
{
    version     2.0;
    format      ascii;
    class       volVectorField;
    location    "0.3";
    object      U;
}
// * * * * * * * * * * * * * * * * * * * * * * * * * * * * * * * * * * * * * //

dimensions      [0 1 -1 0 0 0 0];

internalField   nonuniform List<vector> 
400
(
(0.000889938 -0.000889722 0)
(0.000346875 0.000472562 0)
(-0.00461718 0.00209324 0)
(-0.0130481 0.00319708 0)
(-0.0234989 0.00374294 0)
(-0.0346235 0.0038152 0)
(-0.0452619 0.003502 0)
(-0.0544387 0.00287307 0)
(-0.0613422 0.00198193 0)
(-0.0653173 0.000881478 0)
(-0.0658965 -0.000357959 0)
(-0.0628625 -0.00163545 0)
(-0.0563292 -0.00281504 0)
(-0.0468139 -0.00373323 0)
(-0.0352728 -0.00421867 0)
(-0.0230695 -0.00412338 0)
(-0.0118519 -0.00336326 0)
(-0.00332152 -0.00196423 0)
(0.00112053 -0.000172039 0)
(0.00108809 0.00105609 0)
(-0.000408618 -0.000436653 0)
(-0.00636878 0.00634545 0)
(-0.0216469 0.0134023 0)
(-0.0437782 0.0183179 0)
(-0.069851 0.020745 0)
(-0.0970885 0.0208624 0)
(-0.122894 0.0189726 0)
(-0.144975 0.0153853 0)
(-0.161407 0.0104016 0)
(-0.170672 0.00435544 0)
(-0.17175 -0.00232854 0)
(-0.16424 -0.00909413 0)
(-0.148512 -0.0152488 0)
(-0.125822 -0.0200078 0)
(-0.0983445 -0.0225924 0)
(-0.0690678 -0.0223773 0)
(-0.0414814 -0.0190773 0)
(-0.0190522 -0.0129472 0)
(-0.00469056 -0.00511358 0)
(7.88822e-05 0.00125214 0)
(-0.00215382 0.00453765 0)
(-0.0143545 0.0218327 0)
(-0.0400355 0.0378761 0)
(-0.0745857 0.0489357 0)
(-0.113825 0.0542219 0)
(-0.15406 0.0539583 0)
(-0.191776 0.048732 0)
(-0.223828 0.0392485 0)
(-0.24756 0.0262754 0)
(-0.260891 0.0107049 0)
(-0.262438 -0.00634873 0)
(-0.251677 -0.0234814 0)
(-0.229122 -0.0390062 0)
(-0.196467 -0.0510642 0)
(-0.156624 -0.0578537 0)
(-0.113595 -0.0579706 0)
(-0.0720683 -0.0508279 0)
(-0.0367572 -0.0370845 0)
(-0.0120378 -0.0191554 0)
(-0.00142696 -0.00252598 0)
(-0.00370909 0.0138263 0)
(-0.0218504 0.0462699 0)
(-0.0575728 0.0737303 0)
(-0.103776 0.092036 0)
(-0.154928 0.100281 0)
(-0.206572 0.0988777 0)
(-0.254549 0.0887949 0)
(-0.295145 0.0712306 0)
(-0.325229 0.047538 0)
(-0.342331 0.0193118 0)
(-0.344779 -0.0114737 0)
(-0.331877 -0.0423683 0)
(-0.304112 -0.0704622 0)
(-0.263334 -0.0925668 0)
(-0.212862 -0.105585 0)
(-0.157393 -0.10707 0)
(-0.102611 -0.0959156 0)
(-0.0544867 -0.0730375 0)
(-0.0191858 -0.04201 0)
(-0.00277233 -0.0102272 0)
(-0.00505914 0.0269492 0)
(-0.0286767 0.0789686 0)
(-0.0738821 0.120012 0)
(-0.131059 0.146288 0)
(-0.193286 0.157279 0)
(-0.255406 0.153872 0)
(-0.312765 0.137576 0)
(-0.361271 0.110175 0)
(-0.397478 0.0736672 0)
(-0.418629 0.0303987 0)
(-0.422769 -0.0167451 0)
(-0.408928 -0.0641978 0)
(-0.377362 -0.107714 0)
(-0.329813 -0.142591 0)
(-0.269718 -0.164167 0)
(-0.202269 -0.168599 0)
(-0.134107 -0.15386 0)
(-0.0726535 -0.120733 0)
(-0.0262726 -0.0736219 0)
(-0.00399624 -0.0215762 0)
(-0.00626487 0.0435263 0)
(-0.0349371 0.119397 0)
(-0.0890237 0.176185 0)
(-0.156496 0.211132 0)
(-0.22907 0.224632 0)
(-0.300956 0.218407 0)
(-0.367126 0.194713 0)
(-0.423251 0.15602 0)
(-0.465701 0.104996 0)
(-0.491503 0.0447163 0)
(-0.498404 -0.0210657 0)
(-0.48504 -0.0876921 0)
(-0.451218 -0.149543 0)
(-0.398274 -0.200247 0)
(-0.329462 -0.233253 0)
(-0.250245 -0.242828 0)
(-0.168184 -0.225408 0)
(-0.0923823 -0.181038 0)
(-0.033891 -0.114535 0)
(-0.00526544 -0.0365974 0)
(-0.00737674 0.0632757 0)
(-0.0407505 0.167031 0)
(-0.103111 0.241631 0)
(-0.180127 0.2859 0)
(-0.262228 0.301681 0)
(-0.343077 0.291923 0)
(-0.417413 0.259875 0)
(-0.480829 0.20879 0)
(-0.529649 0.141999 0)
(-0.560775 0.0632121 0)
(-0.571661 -0.0230816 0)
(-0.560452 -0.111263 0)
(-0.52628 -0.194395 0)
(-0.469745 -0.264332 0)
(-0.393528 -0.312291 0)
(-0.303013 -0.330015 0)
(-0.206518 -0.311544 0)
(-0.114987 -0.255288 0)
(-0.042753 -0.165871 0)
(-0.00676854 -0.0557108 0)
(-0.00843098 0.0859856 0)
(-0.04621 0.221372 0)
(-0.116213 0.315633 0)
(-0.201862 0.369722 0)
(-0.292374 0.387489 0)
(-0.380999 0.373559 0)
(-0.462429 0.332437 0)
(-0.532384 0.268267 0)
(-0.58734 0.184998 0)
(-0.624224 0.0868239 0)
(-0.640273 -0.0212662 0)
(-0.633099 -0.132945 0)
(-0.600971 -0.240146 0)
(-0.543394 -0.332967 0)
(-0.461966 -0.40009 0)
(-0.361431 -0.430012 0)
(-0.250434 -0.413239 0)
(-0.141732 -0.345222 0)
(-0.053603 -0.229375 0)
(-0.00870662 -0.0797541 0)
(-0.00946335 0.111496 0)
(-0.0514136 0.281939 0)
(-0.128387 0.397356 0)
(-0.221494 0.461425 0)
(-0.3188 0.480666 0)
(-0.413331 0.461887 0)
(-0.499983 0.411167 0)
(-0.574895 0.333648 0)
(-0.634974 0.233836 0)
(-0.677424 0.116193 0)
(-0.69945 -0.0141152 0)
(-0.698202 -0.150446 0)
(-0.670987 -0.283984 0)
(-0.615871 -0.403285 0)
(-0.532759 -0.494362 0)
(-0.424922 -0.541753 0)
(-0.300502 -0.531021 0)
(-0.173651 -0.452745 0)
(-0.0671972 -0.307364 0)
(-0.0113071 -0.109993 0)
(-0.0105415 0.13972 0)
(-0.0565586 0.348295 0)
(-0.139809 0.485792 0)
(-0.238832 0.55938 0)
(-0.340585 0.579095 0)
(-0.438131 0.554568 0)
(-0.526938 0.493816 0)
(-0.603948 0.403109 0)
(-0.666894 0.28743 0)
(-0.713622 0.15126 0)
(-0.741634 -0.000467792 0)
(-0.747856 -0.161334 0)
(-0.728696 -0.322374 0)
(-0.680553 -0.471135 0)
(-0.600994 -0.591155 0)
(-0.490729 -0.662507 0)
(-0.356025 -0.664249 0)
(-0.211343 -0.579438 0)
(-0.0843122 -0.402567 0)
(-0.014856 -0.148142 0)
(-0.0118221 0.17074 0)
(-0.062102 0.420141 0)
(-0.150989 0.579727 0)
(-0.253895 0.661311 0)
(-0.356722 0.679632 0)
(-0.45299 0.647959 0)
(-0.539251 0.576682 0)
(-0.613772 0.473334 0)
(-0.675604 0.343288 0)
(-0.723723 0.190772 0)
(-0.7564 0.020031 0)
(-0.770773 -0.163393 0)
(-0.762661 -0.351229 0)
(-0.726808 -0.530936 0)
(-0.657937 -0.684314 0)
(-0.552959 -0.786984 0)
(-0.41431 -0.810074 0)
(-0.254648 -0.725757 0)
(-0.105757 -0.517821 0)
(-0.0197524 -0.196431 0)
(-0.0136506 0.205039 0)
(-0.0690062 0.497522 0)
(-0.163035 0.677714 0)
(-0.267069 0.764046 0)
(-0.366152 0.777721 0)
(-0.454967 0.736686 0)
(-0.531904 0.654165 0)
(-0.597212 0.539061 0)
(-0.651835 0.397027 0)
(-0.696428 0.231764 0)
(-0.730608 0.0463729 0)
(-0.752344 -0.15518 0)
(-0.757468 -0.366338 0)
(-0.739481 -0.575815 0)
(-0.690137 -0.765122 0)
(-0.601455 -0.906376 0)
(-0.469622 -0.962073 0)
(-0.30208 -0.88978 0)
(-0.132346 -0.655545 0)
(-0.0265946 -0.257722 0)
(-0.0167376 0.243949 0)
(-0.0790892 0.58114 0)
(-0.177875 0.777944 0)
(-0.279026 0.863089 0)
(-0.367384 0.866872 0)
(-0.440074 0.813152 0)
(-0.498402 0.718366 0)
(-0.545384 0.592754 0)
(-0.584442 0.442055 0)
(-0.61841 0.269166 0)
(-0.648802 0.0756594 0)
(-0.675119 -0.136697 0)
(-0.694077 -0.364101 0)
(-0.698848 -0.598168 0)
(-0.678791 -0.822355 0)
(-0.620571 -1.00758 0)
(-0.511746 -1.1086 0)
(-0.349817 -1.06533 0)
(-0.164746 -0.816756 0)
(-0.0363032 -0.335728 0)
(-0.0224604 0.290449 0)
(-0.0954591 0.672637 0)
(-0.198137 0.877717 0)
(-0.289825 0.95173 0)
(-0.357053 0.937828 0)
(-0.40162 0.866972 0)
(-0.429235 0.758813 0)
(-0.446504 0.624547 0)
(-0.459744 0.469603 0)
(-0.474224 0.295772 0)
(-0.493664 0.102844 0)
(-0.519661 -0.10999 0)
(-0.550783 -0.342486 0)
(-0.581269 -0.590779 0)
(-0.599632 -0.843084 0)
(-0.588033 -1.07301 0)
(-0.524039 -1.23117 0)
(-0.389908 -1.23934 0)
(-0.202894 -0.999175 0)
(-0.0502241 -0.435202 0)
(-0.033285 0.350444 0)
(-0.122734 0.774421 0)
(-0.22577 0.971923 0)
(-0.295897 1.01933 0)
(-0.326025 0.977349 0)
(-0.326237 0.884452 0)
(-0.308361 0.762569 0)
(-0.283132 0.622797 0)
(-0.259694 0.469489 0)
(-0.245455 0.302954 0)
(-0.246116 0.121125 0)
(-0.265476 -0.0793501 0)
(-0.304679 -0.301991 0)
(-0.36065 -0.548507 0)
(-0.423616 -0.814613 0)
(-0.474084 -1.0818 0)
(-0.480835 -1.30355 0)
(-0.406968 -1.38851 0)
(-0.244084 -1.19377 0)
(-0.069855 -0.561762 0)
(-0.0528701 0.434813 0)
(-0.165564 0.88778 0)
(-0.256613 1.04921 0)
(-0.281797 1.04818 0)
(-0.250493 0.966643 0)
(-0.185763 0.84853 0)
(-0.106551 0.715287 0)
(-0.0271619 0.575794 0)
(0.0415494 0.432098 0)
(0.0912468 0.282579 0)
(0.115297 0.123464 0)
(0.108363 -0.050569 0)
(0.0666843 -0.2461 0)
(-0.0106124 -0.470189 0)
(-0.118583 -0.727587 0)
(-0.241174 -1.01285 0)
(-0.343965 -1.29273 0)
(-0.372125 -1.47618 0)
(-0.277631 -1.37945 0)
(-0.094902 -0.721631 0)
(-0.0837543 0.563631 0)
(-0.220322 1.00569 0)
(-0.263332 1.08173 0)
(-0.200268 1.00676 0)
(-0.0742075 0.879055 0)
(0.0766011 0.739584 0)
(0.22853 0.60374 0)
(0.366814 0.475042 0)
(0.481754 0.351826 0)
(0.566472 0.230273 0)
(0.615319 0.105406 0)
(0.622918 -0.0289291 0)
(0.583837 -0.180621 0)
(0.493081 -0.360023 0)
(0.348292 -0.579702 0)
(0.155693 -0.849875 0)
(-0.0582833 -1.16192 0)
(-0.233002 -1.44917 0)
(-0.273108 -1.51443 0)
(-0.116386 -0.921636 0)
(-0.112815 0.764556 0)
(-0.243364 1.08897 0)
(-0.149124 1.00493 0)
(0.0693785 0.842397 0)
(0.320685 0.68192 0)
(0.563877 0.54147 0)
(0.781493 0.422819 0)
(0.965282 0.321738 0)
(1.11132 0.23256 0)
(1.21727 0.149867 0)
(1.2807 0.0685593 0)
(1.29805 -0.0167632 0)
(1.26394 -0.112853 0)
(1.17067 -0.229562 0)
(1.00848 -0.38212 0)
(0.768969 -0.592391 0)
(0.45506 -0.881888 0)
(0.103227 -1.2384 0)
(-0.156316 -1.51345 0)
(-0.0949302 -1.14386 0)
(-0.0148164 0.961676 0)
(-0.0156832 1.00281 0)
(0.364027 0.733676 0)
(0.785036 0.526609 0)
(1.14031 0.382201 0)
(1.42938 0.278799 0)
(1.66151 0.203447 0)
(1.8432 0.14658 0)
(1.97978 0.101066 0)
(2.07498 0.0618875 0)
(2.13044 0.0253555 0)
(2.14542 -0.011748 0)
(2.11635 -0.0531709 0)
(2.03574 -0.1046 0)
(1.89039 -0.176479 0)
(1.65945 -0.289264 0)
(1.31188 -0.480419 0)
(0.813869 -0.79872 0)
(0.26997 -1.21403 0)
(0.126458 -1.20004 0)
(1.06749 0.523564 0)
(1.37782 0.46279 0)
(1.93067 0.289333 0)
(2.35712 0.178078 0)
(2.62777 0.11255 0)
(2.80836 0.0724015 0)
(2.93576 0.0471379 0)
(3.02617 0.0306121 0)
(3.08859 0.0190018 0)
(3.1284 0.0100128 0)
(3.14833 0.00224483 0)
(3.14912 -0.00527732 0)
(3.1296 -0.0135593 0)
(3.08616 -0.024041 0)
(3.01073 -0.0396562 0)
(2.88636 -0.0673006 0)
(2.6734 -0.123622 0)
(2.27251 -0.243959 0)
(1.63405 -0.463623 0)
(1.1916 -0.565571 0)
)
;

boundaryField
{
    movingWall
    {
        type            fixedValue;
        value           uniform (3.7 0 0);
    }
    fixedWalls
    {
        type            noSlip;
    }
    frontAndBack
    {
        type            empty;
    }
}


// ************************************************************************* //
