/*--------------------------------*- C++ -*----------------------------------*\
  =========                 |
  \\      /  F ield         | OpenFOAM: The Open Source CFD Toolbox
   \\    /   O peration     | Website:  https://openfoam.org
    \\  /    A nd           | Version:  8
     \\/     M anipulation  |
\*---------------------------------------------------------------------------*/
FoamFile
{
    version     2.0;
    format      ascii;
    class       volScalarField;
    location    "0.3";
    object      p;
}
// * * * * * * * * * * * * * * * * * * * * * * * * * * * * * * * * * * * * * //

dimensions      [0 2 -2 0 0 0 0];

internalField   nonuniform List<scalar> 
400
(
5.94273e-06
-0.0257548
-0.0562266
-0.0790923
-0.0878586
-0.0797902
-0.0545159
-0.0131891
0.0418574
0.107119
0.17785
0.248149
0.31135
0.360802
0.391009
0.39896
0.385429
0.355941
0.321082
0.295818
0.0256139
-0.00108028
-0.0248757
-0.0404013
-0.0450794
-0.037073
-0.0159381
0.0176263
0.0619804
0.114499
0.171501
0.228332
0.279693
0.320308
0.345846
0.353986
0.345397
0.32414
0.296558
0.270912
0.0578736
0.0210425
-0.00438994
-0.0183042
-0.0220865
-0.0150399
0.00301578
0.0315526
0.069421
0.114666
0.164345
0.214511
0.260469
0.297352
0.320973
0.328824
0.321044
0.300523
0.270205
0.23422
0.0846752
0.0343805
0.00327692
-0.0123096
-0.0172112
-0.0117666
0.00388715
0.0293021
0.0637208
0.105724
0.152882
0.201599
0.247259
0.28474
0.309268
0.317493
0.30868
0.284756
0.246203
0.19512
0.0972901
0.0334911
-0.00419711
-0.0225358
-0.0293375
-0.0257747
-0.0121894
0.0111184
0.0438164
0.0850182
0.132752
0.183637
0.23289
0.274757
0.303377
0.314031
0.304707
0.276312
0.227302
0.158838
0.0888543
0.0123617
-0.0318946
-0.053324
-0.062332
-0.0607277
-0.0489079
-0.0269004
0.00548773
0.047983
0.0991234
0.155736
0.21275
0.263498
0.300557
0.317214
0.309589
0.277221
0.21653
0.128391
0.0535419
-0.0345981
-0.0850036
-0.109473
-0.120735
-0.121092
-0.110856
-0.0896303
-0.0565366
-0.0110582
0.0460356
0.111928
0.181302
0.246398
0.297762
0.325919
0.324217
0.290036
0.217132
0.106293
-0.013909
-0.112585
-0.16847
-0.195634
-0.209006
-0.211325
-0.202713
-0.182194
-0.147986
-0.0984972
-0.0334615
0.0450154
0.131632
0.217558
0.290902
0.338511
0.34966
0.318148
0.233538
0.0961794
-0.118401
-0.226563
-0.287049
-0.316229
-0.331299
-0.335507
-0.328754
-0.30934
-0.274323
-0.220656
-0.146528
-0.0527419
0.0559849
0.17008
0.275026
0.35303
0.387564
0.366564
0.27261
0.104422
-0.264548
-0.381357
-0.445214
-0.475072
-0.490811
-0.496448
-0.491733
-0.474137
-0.439291
-0.38224
-0.298978
-0.188174
-0.0530342
0.0969239
0.244817
0.367468
0.440513
0.442727
0.345096
0.142053
-0.456893
-0.581898
-0.647086
-0.674876
-0.688874
-0.694426
-0.691317
-0.676132
-0.642805
-0.583992
-0.492767
-0.364649
-0.200057
-0.00707583
0.196068
0.38073
0.512801
0.557626
0.467576
0.227484
-0.700697
-0.833914
-0.896531
-0.916673
-0.923862
-0.925696
-0.922272
-0.909224
-0.878493
-0.819865
-0.722773
-0.578529
-0.383265
-0.141696
0.128636
0.394835
0.612057
0.727511
0.665215
0.390716
-1.00409
-1.14544
-1.19747
-1.19915
-1.18993
-1.18094
-1.17273
-1.15975
-1.13153
-1.07447
-0.973723
-0.815481
-0.590127
-0.296758
0.0508283
0.418585
0.752089
0.976568
0.97584
0.680327
-1.38329
-1.52978
-1.5543
-1.51766
-1.47565
-1.44391
-1.42304
-1.40554
-1.37776
-1.32209
-1.21885
-1.04847
-0.794495
-0.448299
-0.0162321
0.471765
0.956454
1.34048
1.45606
1.1757
-1.87458
-2.01058
-1.97166
-1.86225
-1.7621
-1.69037
-1.64564
-1.61665
-1.58519
-1.52867
-1.4221
-1.23983
-0.958028
-0.558871
-0.0376542
0.586817
1.2601
1.86868
2.18823
2.00608
-2.55881
-2.62924
-2.45236
-2.2144
-2.021
-1.8879
-1.80657
-1.75849
-1.71854
-1.65778
-1.54537
-1.34952
-1.0388
-0.585579
0.0288535
0.804569
1.70625
2.62123
3.28179
3.36974
-3.61244
-3.45311
-2.99509
-2.54714
-2.21698
-2.00017
-1.87175
-1.79986
-1.74886
-1.68192
-1.56181
-1.35078
-1.00918
-0.499459
0.214123
1.15863
2.33475
3.65911
4.87253
5.56406
-5.47743
-4.57325
-3.56401
-2.80613
-2.29832
-1.98453
-1.80991
-1.71991
-1.66392
-1.59607
-1.47295
-1.25114
-0.88505
-0.324415
0.487383
1.61515
3.11768
4.99261
7.14977
9.201
-9.4101
-6.02024
-3.86531
-2.73278
-2.0831
-1.72052
-1.54704
-1.47959
-1.45181
-1.41136
-1.31217
-1.10857
-0.752341
-0.183974
0.673728
1.93282
3.75046
6.34237
10.236
15.6632
-16.926
-7.40658
-3.26997
-1.91158
-1.33568
-1.08055
-1.01978
-1.05645
-1.11914
-1.15773
-1.13061
-0.996829
-0.710752
-0.216176
0.56666
1.77501
3.68236
6.91168
13.2914
25.07
)
;

boundaryField
{
    movingWall
    {
        type            zeroGradient;
    }
    fixedWalls
    {
        type            zeroGradient;
    }
    frontAndBack
    {
        type            empty;
    }
}


// ************************************************************************* //
