/*--------------------------------*- C++ -*----------------------------------*\
  =========                 |
  \\      /  F ield         | OpenFOAM: The Open Source CFD Toolbox
   \\    /   O peration     | Website:  https://openfoam.org
    \\  /    A nd           | Version:  8
     \\/     M anipulation  |
\*---------------------------------------------------------------------------*/
FoamFile
{
    version     2.0;
    format      ascii;
    class       volScalarField;
    location    "0.4";
    object      p;
}
// * * * * * * * * * * * * * * * * * * * * * * * * * * * * * * * * * * * * * //

dimensions      [0 2 -2 0 0 0 0];

internalField   nonuniform List<scalar> 
400
(
9.7492e-06
-0.0210226
-0.0460541
-0.0648609
-0.0719319
-0.0649262
-0.0435778
-0.00898826
0.0367179
0.0904821
0.148332
0.205495
0.256713
0.296825
0.321583
0.328627
0.318468
0.295284
0.267326
0.246577
0.0209096
-0.000854361
-0.0204045
-0.0331832
-0.0368971
-0.0299609
-0.0120471
0.016138
0.0530694
0.096434
0.143137
0.189405
0.231066
0.264033
0.28498
0.292104
0.285861
0.269302
0.247222
0.226105
0.0474113
0.0173703
-0.00356935
-0.0150706
-0.0180445
-0.0118372
0.00365247
0.0278416
0.0595859
0.0970981
0.137865
0.178679
0.215862
0.245682
0.264967
0.271801
0.26624
0.250378
0.226175
0.196649
0.0698028
0.0287116
0.00303225
-0.00988707
-0.0137159
-0.0086436
0.00514341
0.0270786
0.0562783
0.0913339
0.130105
0.169652
0.206378
0.236409
0.256183
0.263191
0.256831
0.2384
0.207744
0.166053
0.0811974
0.0289305
-0.00227281
-0.0174562
-0.0226704
-0.0187945
-0.00623122
0.0144975
0.0427651
0.0775071
0.116882
0.158087
0.197407
0.230534
0.253159
0.261817
0.254985
0.233146
0.194383
0.13891
0.0762497
0.0133285
-0.0234174
-0.0410652
-0.0477526
-0.0449042
-0.0330385
-0.0125581
0.0162173
0.0525956
0.0950355
0.140828
0.186018
0.225642
0.254311
0.267185
0.261439
0.236532
0.188816
0.11801
0.0504052
-0.0225086
-0.0644776
-0.0844251
-0.0923963
-0.0902645
-0.0785696
-0.0574974
-0.0269632
0.0128115
0.0606769
0.114075
0.168791
0.219052
0.258047
0.279053
0.277364
0.25092
0.193924
0.105727
-0.00056593
-0.0828055
-0.129456
-0.151242
-0.160074
-0.15825
-0.146262
-0.123971
-0.0907446
-0.0461539
0.0092442
0.0732351
0.141466
0.207308
0.262227
0.297
0.304205
0.279354
0.213476
0.105255
-0.0808211
-0.171805
-0.222398
-0.245227
-0.254205
-0.252126
-0.239418
-0.215509
-0.179036
-0.128664
-0.0640342
0.0133361
0.0992669
0.186416
0.264332
0.320625
0.344037
0.326191
0.253071
0.121813
-0.194594
-0.293922
-0.347393
-0.369881
-0.377726
-0.374449
-0.360457
-0.33466
-0.294751
-0.238166
-0.163193
-0.0701257
0.0375801
0.1523
0.261726
0.34973
0.399864
0.397737
0.321223
0.164032
-0.346462
-0.45402
-0.508585
-0.528154
-0.532449
-0.526163
-0.509813
-0.481713
-0.438386
-0.375661
-0.289951
-0.179643
-0.046657
0.101916
0.25244
0.384839
0.47612
0.503073
0.430788
0.245893
-0.542091
-0.658035
-0.710296
-0.72203
-0.718221
-0.705462
-0.684556
-0.653126
-0.606251
-0.537743
-0.441577
-0.31346
-0.152746
0.0352507
0.23677
0.428354
0.579591
0.655232
0.600977
0.389719
-0.790114
-0.914265
-0.95728
-0.951952
-0.931863
-0.906465
-0.876923
-0.839926
-0.788719
-0.714641
-0.608668
-0.463073
-0.273534
-0.0419887
0.219679
0.486462
0.72092
0.872874
0.860294
0.631189
-1.10661
-1.23581
-1.25501
-1.2159
-1.16582
-1.11783
-1.07305
-1.02657
-0.969155
-0.889085
-0.773825
-0.611578
-0.393346
-0.115978
0.213236
0.571225
0.916295
1.18232
1.25094
1.02837
-1.52521
-1.64472
-1.60924
-1.5074
-1.4062
-1.32136
-1.25224
-1.19087
-1.12435
-1.03711
-0.912607
-0.734528
-0.488492
-0.164755
0.237047
0.701014
1.18763
1.61848
1.83401
1.67678
-2.11749
-2.17774
-2.02398
-1.81238
-1.63051
-1.49109
-1.38751
-1.30579
-1.22745
-1.13194
-0.998171
-0.805071
-0.532486
-0.162986
0.314406
0.897505
1.55974
2.22194
2.69105
2.72675
-3.03396
-2.89168
-2.49852
-2.10826
-1.80872
-1.59615
-1.45013
-1.34553
-1.25523
-1.1524
-1.01088
-0.804746
-0.507856
-0.0941626
0.460918
1.17642
2.05279
3.03131
3.92271
4.41026
-4.64416
-3.86003
-2.99949
-2.34618
-1.89465
-1.59853
-1.41227
-1.29149
-1.19669
-1.09373
-0.951585
-0.739949
-0.427088
0.0224766
0.650471
1.50643
2.63625
4.0428
5.66558
7.20932
-7.98731
-5.10716
-3.28099
-2.30897
-1.73589
-1.39842
-1.21341
-1.11216
-1.04222
-0.964229
-0.845085
-0.652866
-0.353463
0.0953559
0.751534
1.70182
3.06779
5.02228
8.00983
12.2467
-14.2208
-6.31047
-2.83604
-1.66038
-1.14314
-0.895924
-0.806116
-0.792364
-0.798403
-0.786965
-0.728711
-0.595832
-0.357142
0.0262883
0.613343
1.50975
2.92629
5.35678
10.3271
19.7453
)
;

boundaryField
{
    movingWall
    {
        type            zeroGradient;
    }
    fixedWalls
    {
        type            zeroGradient;
    }
    frontAndBack
    {
        type            empty;
    }
}


// ************************************************************************* //
