/*--------------------------------*- C++ -*----------------------------------*\
  =========                 |
  \\      /  F ield         | OpenFOAM: The Open Source CFD Toolbox
   \\    /   O peration     | Website:  https://openfoam.org
    \\  /    A nd           | Version:  8
     \\/     M anipulation  |
\*---------------------------------------------------------------------------*/
FoamFile
{
    version     2.0;
    format      ascii;
    class       volVectorField;
    location    "0.4";
    object      U;
}
// * * * * * * * * * * * * * * * * * * * * * * * * * * * * * * * * * * * * * //

dimensions      [0 1 -1 0 0 0 0];

internalField   nonuniform List<vector> 
400
(
(0.000867966 -0.0008659 0)
(0.000343411 0.000458748 0)
(-0.00448531 0.00203728 0)
(-0.0126927 0.00311373 0)
(-0.0228701 0.00364611 0)
(-0.033704 0.00371562 0)
(-0.0440608 0.00340823 0)
(-0.0529881 0.00279277 0)
(-0.0596957 0.00192266 0)
(-0.0635492 0.000850607 0)
(-0.0640985 -0.000354295 0)
(-0.0611379 -0.00159401 0)
(-0.0547824 -0.00273731 0)
(-0.045536 -0.00362682 0)
(-0.0343251 -0.00409753 0)
(-0.0224697 -0.00400652 0)
(-0.0115651 -0.00327157 0)
(-0.00326211 -0.00191572 0)
(0.00107369 -0.000174386 0)
(0.00105474 0.00102404 0)
(-0.000393549 -0.000428978 0)
(-0.00618402 0.00616797 0)
(-0.0210448 0.0130416 0)
(-0.0425844 0.0178342 0)
(-0.0679676 0.0202009 0)
(-0.094485 0.0203118 0)
(-0.119601 0.0184624 0)
(-0.14108 0.0149582 0)
(-0.157049 0.0100975 0)
(-0.166037 0.00421032 0)
(-0.167059 -0.00228771 0)
(-0.159738 -0.00885637 0)
(-0.144439 -0.0148263 0)
(-0.122386 -0.0194409 0)
(-0.0956878 -0.0219494 0)
(-0.0672392 -0.0217474 0)
(-0.0404208 -0.0185557 0)
(-0.0185958 -0.0126138 0)
(-0.00459896 -0.0050038 0)
(6.70022e-05 0.00120115 0)
(-0.00208926 0.00440103 0)
(-0.0139465 0.0212262 0)
(-0.0389259 0.0368537 0)
(-0.0725493 0.047636 0)
(-0.110747 0.0527899 0)
(-0.149912 0.052526 0)
(-0.186617 0.047418 0)
(-0.217792 0.0381612 0)
(-0.240854 0.0255145 0)
(-0.253786 0.0103566 0)
(-0.255253 -0.00622337 0)
(-0.24476 -0.0228613 0)
(-0.222817 -0.0379256 0)
(-0.191074 -0.0496223 0)
(-0.152357 -0.0562135 0)
(-0.110546 -0.0563419 0)
(-0.0701804 -0.0494334 0)
(-0.0358321 -0.0361117 0)
(-0.0117581 -0.0186977 0)
(-0.00140225 -0.00249877 0)
(-0.00359979 0.0134238 0)
(-0.0212329 0.0449878 0)
(-0.0559821 0.0717383 0)
(-0.100948 0.0895859 0)
(-0.150742 0.0976242 0)
(-0.201013 0.0962449 0)
(-0.247698 0.0863946 0)
(-0.287177 0.0692545 0)
(-0.316403 0.0461614 0)
(-0.332983 0.0186839 0)
(-0.335304 -0.011248 0)
(-0.322707 -0.0412535 0)
(-0.295681 -0.068517 0)
(-0.256033 -0.0899598 0)
(-0.206986 -0.102594 0)
(-0.153095 -0.104056 0)
(-0.0998615 -0.0932686 0)
(-0.0530721 -0.0710952 0)
(-0.018716 -0.0409663 0)
(-0.00271423 -0.0100214 0)
(-0.00491128 0.0261728 0)
(-0.0278726 0.0767873 0)
(-0.0718566 0.116774 0)
(-0.127514 0.142395 0)
(-0.188097 0.153109 0)
(-0.248568 0.149768 0)
(-0.30438 0.133847 0)
(-0.351539 0.107105 0)
(-0.386694 0.0715184 0)
(-0.407174 0.0293942 0)
(-0.411097 -0.0164458 0)
(-0.397544 -0.0625343 0)
(-0.366788 -0.104761 0)
(-0.320537 -0.138587 0)
(-0.262136 -0.159514 0)
(-0.196621 -0.163833 0)
(-0.130417 -0.149577 0)
(-0.0707067 -0.117475 0)
(-0.0256034 -0.071743 0)
(-0.00390663 -0.0210945 0)
(-0.00608434 0.0422824 0)
(-0.0339721 0.116116 0)
(-0.0866199 0.171452 0)
(-0.152323 0.20553 0)
(-0.223001 0.218685 0)
(-0.292987 0.212577 0)
(-0.357367 0.189418 0)
(-0.411916 0.151643 0)
(-0.453101 0.101892 0)
(-0.478046 0.0431951 0)
(-0.484583 -0.0207747 0)
(-0.471423 -0.0854853 0)
(-0.438411 -0.145494 0)
(-0.386876 -0.194647 0)
(-0.319993 -0.226631 0)
(-0.243065 -0.235917 0)
(-0.163407 -0.21906 0)
(-0.0898144 -0.176069 0)
(-0.0329902 -0.111538 0)
(-0.00514037 -0.0357353 0)
(-0.00716966 0.061485 0)
(-0.0396535 0.162481 0)
(-0.100395 0.235187 0)
(-0.175434 0.278356 0)
(-0.255422 0.293719 0)
(-0.334152 0.284132 0)
(-0.406475 0.25278 0)
(-0.468085 0.202878 0)
(-0.515408 0.137724 0)
(-0.545448 0.0609815 0)
(-0.555762 -0.0229487 0)
(-0.544591 -0.108594 0)
(-0.511144 -0.18923 0)
(-0.456048 -0.256991 0)
(-0.381941 -0.303415 0)
(-0.294056 -0.320551 0)
(-0.200439 -0.30265 0)
(-0.111656 -0.248145 0)
(-0.0415601 -0.161415 0)
(-0.00659694 -0.0543413 0)
(-0.00820412 0.0835856 0)
(-0.0450139 0.215416 0)
(-0.113262 0.307306 0)
(-0.196776 0.360047 0)
(-0.285006 0.377316 0)
(-0.371336 0.363601 0)
(-0.45056 0.323325 0)
(-0.518496 0.260588 0)
(-0.571716 0.179309 0)
(-0.607254 0.0836401 0)
(-0.622464 -0.0215148 0)
(-0.615079 -0.129983 0)
(-0.583486 -0.23394 0)
(-0.52727 -0.323822 0)
(-0.448038 -0.388726 0)
(-0.35042 -0.417586 0)
(-0.242786 -0.401266 0)
(-0.137443 -0.335352 0)
(-0.0520272 -0.223034 0)
(-0.00846939 -0.0777116 0)
(-0.00922416 0.108443 0)
(-0.0501548 0.274483 0)
(-0.125287 0.387026 0)
(-0.21616 0.449487 0)
(-0.311081 0.468137 0)
(-0.403201 0.449602 0)
(-0.48751 0.399854 0)
(-0.560231 0.323986 0)
(-0.618359 0.226481 0)
(-0.659199 0.111776 0)
(-0.680082 -0.015036 0)
(-0.678299 -0.147459 0)
(-0.651316 -0.276931 0)
(-0.597343 -0.392392 0)
(-0.516367 -0.48037 0)
(-0.411622 -0.525999 0)
(-0.291004 -0.515405 0)
(-0.16817 -0.439504 0)
(-0.0651158 -0.298606 0)
(-0.0109755 -0.107055 0)
(-0.0102971 0.13599 0)
(-0.0552727 0.339287 0)
(-0.136648 0.473396 0)
(-0.233407 0.545113 0)
(-0.332751 0.564138 0)
(-0.427857 0.539867 0)
(-0.514269 0.480181 0)
(-0.588999 0.391297 0)
(-0.649846 0.278188 0)
(-0.694745 0.145327 0)
(-0.721316 -0.00239342 0)
(-0.726638 -0.158676 0)
(-0.707306 -0.314799 0)
(-0.659927 -0.458714 0)
(-0.582244 -0.574559 0)
(-0.475043 -0.643175 0)
(-0.344445 -0.644455 0)
(-0.204418 -0.562111 0)
(-0.0815714 -0.390736 0)
(-0.0143891 -0.144013 0)
(-0.0115767 0.166328 0)
(-0.0608149 0.40957 0)
(-0.14784 0.565264 0)
(-0.248524 0.644728 0)
(-0.349013 0.662269 0)
(-0.442924 0.630855 0)
(-0.526868 0.56071 0)
(-0.59915 0.459306 0)
(-0.658864 0.332019 0)
(-0.705046 0.183096 0)
(-0.736061 0.0167766 0)
(-0.749187 -0.161473 0)
(-0.740438 -0.343584 0)
(-0.704814 -0.517405 0)
(-0.637313 -0.665375 0)
(-0.535073 -0.764044 0)
(-0.400561 -0.785694 0)
(-0.246055 -0.703614 0)
(-0.102173 -0.50214 0)
(-0.0190928 -0.190717 0)
(-0.0134001 0.199947 0)
(-0.067716 0.485406 0)
(-0.159927 0.661241 0)
(-0.261852 0.74525 0)
(-0.358777 0.758089 0)
(-0.445462 0.717329 0)
(-0.520327 0.635993 0)
(-0.583626 0.522911 0)
(-0.636309 0.383748 0)
(-0.67905 0.222249 0)
(-0.711512 0.0415517 0)
(-0.731763 -0.154396 0)
(-0.735805 -0.359166 0)
(-0.717404 -0.561795 0)
(-0.668667 -0.74441 0)
(-0.582011 -0.88015 0)
(-0.453914 -0.932983 0)
(-0.291698 -0.862196 0)
(-0.127718 -0.635147 0)
(-0.0256615 -0.249913 0)
(-0.0164593 0.238164 0)
(-0.0777371 0.567494 0)
(-0.174746 0.759559 0)
(-0.273964 0.842275 0)
(-0.36047 0.845244 0)
(-0.431433 0.791866 0)
(-0.488149 0.698334 0)
(-0.5336 0.574799 0)
(-0.571165 0.427014 0)
(-0.60364 0.257939 0)
(-0.632521 0.0692189 0)
(-0.657336 -0.137332 0)
(-0.6749 -0.357948 0)
(-0.678604 -0.584445 0)
(-0.658186 -0.800778 0)
(-0.600852 -0.978862 0)
(-0.494769 -1.07516 0)
(-0.337757 -1.03199 0)
(-0.15888 -0.790771 0)
(-0.0349851 -0.32517 0)
(-0.0220944 0.283897 0)
(-0.0938825 0.657423 0)
(-0.194781 0.857537 0)
(-0.284773 0.92919 0)
(-0.350612 0.914644 0)
(-0.394078 0.844299 0)
(-0.420812 0.737517 0)
(-0.437332 0.605391 0)
(-0.449853 0.453354 0)
(-0.46354 0.283268 0)
(-0.48202 0.0950216 0)
(-0.506818 -0.112096 0)
(-0.536494 -0.337778 0)
(-0.565397 -0.578198 0)
(-0.582354 -0.821855 0)
(-0.570127 -1.04316 0)
(-0.507188 -1.19445 0)
(-0.376701 -1.2005 0)
(-0.19567 -0.966912 0)
(-0.0483747 -0.421084 0)
(-0.0327011 0.342894 0)
(-0.1206 0.757468 0)
(-0.221781 0.950069 0)
(-0.290563 0.995488 0)
(-0.320004 0.953263 0)
(-0.320053 0.861207 0)
(-0.302371 0.740923 0)
(-0.277531 0.603384 0)
(-0.254508 0.452944 0)
(-0.24054 0.289976 0)
(-0.241157 0.112522 0)
(-0.259989 -0.0826418 0)
(-0.298046 -0.298891 0)
(-0.352203 -0.537809 0)
(-0.412836 -0.795114 0)
(-0.460964 -1.05271 0)
(-0.466431 -1.26551 0)
(-0.393843 -1.3454 0)
(-0.235621 -1.15504 0)
(-0.0673161 -0.543139 0)
(-0.051818 0.425715 0)
(-0.162301 0.868713 0)
(-0.251436 1.02586 0)
(-0.275941 1.02369 0)
(-0.245103 0.942641 0)
(-0.181612 0.8259 0)
(-0.104102 0.69458 0)
(-0.0266264 0.55744 0)
(0.0401984 0.416527 0)
(0.088262 0.270284 0)
(0.111159 0.11504 0)
(0.103789 -0.0543937 0)
(0.06263 -0.244415 0)
(-0.0129804 -0.46184 0)
(-0.118008 -0.711139 0)
(-0.236647 -0.986768 0)
(-0.33542 -1.25622 0)
(-0.361373 -1.43132 0)
(-0.268633 -1.33505 0)
(-0.0916218 -0.697499 0)
(-0.0818335 0.551811 0)
(-0.215199 0.983984 0)
(-0.256734 1.0574 0)
(-0.194531 0.98284 0)
(-0.0709173 0.856715 0)
(0.0765988 0.719297 0)
(0.22485 0.585713 0)
(0.359395 0.459416 0)
(0.470809 0.338774 0)
(0.552456 0.220041 0)
(0.59892 0.0983318 0)
(0.605075 -0.0323903 0)
(0.565766 -0.179847 0)
(0.476308 -0.354116 0)
(0.334655 -0.567317 0)
(0.147175 -0.829075 0)
(-0.0601615 -1.13052 0)
(-0.228385 -1.4066 0)
(-0.265469 -1.46679 0)
(-0.112786 -0.891095 0)
(-0.109712 0.74777 0)
(-0.236357 1.06462 0)
(-0.143144 0.981601 0)
(0.0710786 0.82165 0)
(0.316826 0.663867 0)
(0.554118 0.525952 0)
(0.765927 0.409618 0)
(0.944282 0.310692 0)
(1.08546 0.223594 0)
(1.18731 0.143003 0)
(1.24756 0.0639039 0)
(1.26284 -0.0190135 0)
(1.22802 -0.112388 0)
(1.13568 -0.225867 0)
(0.976487 -0.374264 0)
(0.742531 -0.578636 0)
(0.43706 -0.859318 0)
(0.0960165 -1.20369 0)
(-0.154057 -1.46776 0)
(-0.09286 -1.10737 0)
(-0.0129638 0.93837 0)
(-0.0124661 0.978814 0)
(0.359055 0.715739 0)
(0.770295 0.512897 0)
(1.11672 0.371428 0)
(1.398 0.270267 0)
(1.6233 0.196674 0)
(1.79912 0.141234 0)
(1.93078 0.0969508 0)
(2.02205 0.0589079 0)
(2.0746 0.0234889 0)
(2.08777 -0.0124676 0)
(2.05813 -0.0526533 0)
(1.97838 -0.102666 0)
(1.83566 -0.172745 0)
(1.60973 -0.282791 0)
(1.27059 -0.468917 0)
(0.785968 -0.777742 0)
(0.258363 -1.17963 0)
(0.12082 -1.16454 0)
(1.04 0.509988 0)
(1.34349 0.450684 0)
(1.88302 0.28138 0)
(2.29842 0.172814 0)
(2.56149 0.108943 0)
(2.73661 0.0698894 0)
(2.85982 0.0453695 0)
(2.94701 0.029364 0)
(3.00698 0.0181418 0)
(3.045 0.00946955 0)
(3.06379 0.00198458 0)
(3.06404 -0.00526501 0)
(3.04465 -0.0132668 0)
(3.00205 -0.0234441 0)
(2.92832 -0.0386947 0)
(2.80685 -0.0657929 0)
(2.59885 -0.120952 0)
(2.20769 -0.238331 0)
(1.58667 -0.451663 0)
(1.15762 -0.549972 0)
)
;

boundaryField
{
    movingWall
    {
        type            fixedValue;
        value           uniform (3.6 0 0);
    }
    fixedWalls
    {
        type            noSlip;
    }
    frontAndBack
    {
        type            empty;
    }
}


// ************************************************************************* //
