/*--------------------------------*- C++ -*----------------------------------*\
  =========                 |
  \\      /  F ield         | OpenFOAM: The Open Source CFD Toolbox
   \\    /   O peration     | Website:  https://openfoam.org
    \\  /    A nd           | Version:  8
     \\/     M anipulation  |
\*---------------------------------------------------------------------------*/
FoamFile
{
    version     2.0;
    format      ascii;
    class       volScalarField;
    location    "0.5";
    object      p;
}
// * * * * * * * * * * * * * * * * * * * * * * * * * * * * * * * * * * * * * //

dimensions      [0 2 -2 0 0 0 0];

internalField   nonuniform List<scalar> 
400
(
1.13713e-05
-0.0198447
-0.0435174
-0.0613139
-0.0679788
-0.0612746
-0.0409574
-0.00810502
0.0352244
0.0860955
0.140734
0.194642
0.242899
0.280695
0.304074
0.310835
0.301435
0.279746
0.253464
0.233851
0.0197417
-0.000798318
-0.0192885
-0.0313846
-0.0348746
-0.02824
-0.0111787
0.0156104
0.0506431
0.0916948
0.135821
0.179467
0.218727
0.249795
0.269579
0.276399
0.270671
0.255214
0.234468
0.214496
0.0448054
0.01645
-0.00336527
-0.0142648
-0.0170548
-0.0110959
0.00369731
0.0267386
0.0568985
0.0924438
0.130975
0.169468
0.204484
0.232559
0.250752
0.257288
0.252207
0.237429
0.214703
0.186797
0.0660756
0.0272719
0.00295398
-0.0092987
-0.0128834
-0.0079566
0.00528887
0.0262705
0.0540908
0.08736
0.12402
0.161295
0.195831
0.224039
0.242635
0.249304
0.243479
0.226323
0.197568
0.158215
0.0771069
0.0277131
-0.00185856
-0.0162556
-0.0211114
-0.0172357
-0.00503756
0.0149241
0.041973
0.0750229
0.112281
0.151094
0.187996
0.219013
0.240188
0.248339
0.242054
0.221735
0.185424
0.133154
0.0729136
0.0133864
-0.0214654
-0.0381789
-0.0443505
-0.0413119
-0.0295991
-0.00968379
0.0180182
0.0527424
0.0929536
0.136069
0.178401
0.215377
0.242063
0.254037
0.248709
0.225534
0.180903
0.114326
0.0492437
-0.0198402
-0.0596774
-0.0785228
-0.0857768
-0.0832068
-0.0713929
-0.0506346
-0.0210036
0.0171395
0.0625899
0.112879
0.164063
0.210827
0.246952
0.26632
0.264649
0.240011
0.186776
0.104043
0.00211964
-0.0759513
-0.120265
-0.140763
-0.148626
-0.146039
-0.133567
-0.111243
-0.078666
-0.0356378
0.0171414
0.0774772
0.141268
0.202402
0.253096
0.284985
0.291357
0.268097
0.206634
0.105371
-0.0724203
-0.158997
-0.207084
-0.228424
-0.236124
-0.232865
-0.219182
-0.194744
-0.158516
-0.10951
-0.0476397
0.0254815
0.105857
0.186689
0.258442
0.309907
0.330943
0.313956
0.245753
0.123233
-0.178485
-0.273261
-0.324098
-0.344893
-0.35111
-0.346143
-0.330542
-0.30353
-0.263244
-0.207614
-0.135375
-0.0470983
0.0538042
0.16021
0.260869
0.341196
0.386418
0.383572
0.3121
0.165684
-0.320608
-0.423534
-0.475401
-0.493124
-0.495451
-0.486912
-0.468191
-0.437993
-0.39341
-0.330943
-0.247676
-0.14252
-0.017592
0.120372
0.258843
0.379644
0.462144
0.485515
0.417637
0.245668
-0.504476
-0.61573
-0.66535
-0.675253
-0.669265
-0.653737
-0.629648
-0.595088
-0.54584
-0.476589
-0.382241
-0.259347
-0.107798
0.0671563
0.252753
0.427682
0.564628
0.631999
0.58017
0.383753
-0.738737
-0.858108
-0.898812
-0.892056
-0.869913
-0.841456
-0.808016
-0.766827
-0.71199
-0.635931
-0.530851
-0.390226
-0.210694
0.00543221
0.246935
0.490957
0.703771
0.840368
0.826044
0.612711
-1.03928
-1.1636
-1.18141
-1.14205
-1.09069
-1.03982
-0.990725
-0.939149
-0.876883
-0.793543
-0.678109
-0.520363
-0.31273
-0.0529786
0.251701
0.580015
0.894215
1.13484
1.19416
0.985834
-1.43887
-1.55369
-1.51907
-1.41955
-1.31888
-1.23206
-1.15871
-1.09169
-1.01937
-0.927781
-0.802181
-0.628199
-0.393317
-0.0892856
0.283624
0.710475
1.15526
1.54719
1.74082
1.591
-2.00646
-2.06382
-1.91603
-1.71152
-1.53343
-1.39385
-1.28677
-1.19936
-1.11472
-1.01423
-0.8789
-0.689917
-0.429378
-0.0818788
0.362124
0.900233
1.50806
2.1139
2.54124
2.56743
-2.88571
-2.74806
-2.37171
-1.99662
-1.70584
-1.4959
-1.34775
-1.2379
-1.1413
-1.0334
-0.890469
-0.689108
-0.405792
-0.0169892
0.499622
1.16143
1.96892
2.86899
3.68821
4.13155
-4.42761
-3.67569
-2.85376
-2.22774
-1.79165
-1.50175
-1.31497
-1.18951
-1.08859
-0.98074
-0.837633
-0.631756
-0.334297
0.0871568
0.671072
1.46348
2.50719
3.80611
5.30684
6.73436
-7.61638
-4.86967
-3.12881
-2.19859
-1.64624
-1.31688
-1.13132
-1.02455
-0.947497
-0.863783
-0.743136
-0.55655
-0.27298
0.146246
0.754763
1.63341
2.89535
4.70307
7.47948
11.4342
-13.5245
-6.02377
-2.71951
-1.59227
-1.09151
-0.847903
-0.752894
-0.729214
-0.724271
-0.703732
-0.640934
-0.510836
-0.285332
0.0709714
0.612381
1.43736
2.74195
4.98892
9.62622
18.4708
)
;

boundaryField
{
    movingWall
    {
        type            zeroGradient;
    }
    fixedWalls
    {
        type            zeroGradient;
    }
    frontAndBack
    {
        type            empty;
    }
}


// ************************************************************************* //
