/*--------------------------------*- C++ -*----------------------------------*\
  =========                 |
  \\      /  F ield         | OpenFOAM: The Open Source CFD Toolbox
   \\    /   O peration     | Website:  https://openfoam.org
    \\  /    A nd           | Version:  8
     \\/     M anipulation  |
\*---------------------------------------------------------------------------*/
FoamFile
{
    version     2.0;
    format      ascii;
    class       surfaceScalarField;
    location    "0.5";
    object      phi;
}
// * * * * * * * * * * * * * * * * * * * * * * * * * * * * * * * * * * * * * //

dimensions      [0 3 -1 0 0 0 0];

internalField   nonuniform List<scalar> 
760
(
4.44883e-08
-4.4584e-08
-8.52916e-08
1.2978e-07
-3.98528e-07
3.13237e-07
-8.3693e-07
4.38402e-07
-1.33636e-06
4.99432e-07
-1.83905e-06
5.02686e-07
-2.29576e-06
4.56712e-07
-2.66547e-06
3.69713e-07
-2.91475e-06
2.49272e-07
-3.01825e-06
1.03502e-07
-2.96077e-06
-5.74737e-08
-2.74034e-06
-2.20426e-07
-2.37152e-06
-3.68823e-07
-1.88776e-06
-4.8376e-07
-1.34159e-06
-5.46179e-07
-8.01311e-07
-5.40281e-07
-3.43422e-07
-4.57891e-07
-4.0238e-08
-3.03181e-07
6.13869e-08
-1.01621e-07
6.13905e-08
-1.26139e-07
8.15547e-08
-6.34688e-07
6.38328e-07
-1.49741e-06
1.17596e-06
-2.60724e-06
1.54823e-06
-3.83589e-06
1.72808e-06
-5.05759e-06
1.72439e-06
-6.15903e-06
1.55815e-06
-7.04316e-06
1.25385e-06
-7.63132e-06
8.37432e-07
-7.86611e-06
3.38281e-07
-7.71601e-06
-2.0757e-07
-7.1813e-06
-7.55133e-07
-6.29965e-06
-1.25048e-06
-5.14931e-06
-1.63409e-06
-3.84755e-06
-1.84793e-06
-2.54182e-06
-1.84602e-06
-1.39188e-06
-1.60783e-06
-5.42505e-07
-1.15256e-06
-8.57546e-08
-5.58373e-07
-2.43602e-08
-3.29098e-07
4.10652e-07
-1.24539e-06
1.55461e-06
-2.63069e-06
2.56126e-06
-4.32518e-06
3.24272e-06
-6.15419e-06
3.55709e-06
-7.94765e-06
3.51786e-06
-9.55092e-06
3.16142e-06
-1.08305e-05
2.53344e-06
-1.16782e-05
1.68508e-06
-1.20155e-05
6.75602e-07
-1.18002e-05
-4.2284e-07
-1.10335e-05
-1.52185e-06
-9.76668e-06
-2.5173e-06
-8.1051e-06
-3.29568e-06
-6.20597e-06
-3.74705e-06
-4.26736e-06
-3.78463e-06
-2.50601e-06
-3.36919e-06
-1.12452e-06
-2.53406e-06
-2.7094e-07
-1.41195e-06
-2.95298e-07
-5.14198e-07
9.24849e-07
-1.82377e-06
2.86419e-06
-3.70745e-06
4.44494e-06
-5.94126e-06
5.47653e-06
-8.30592e-06
5.92174e-06
-1.05969e-05
5.80879e-06
-1.26309e-05
5.19551e-06
-1.42507e-05
4.15323e-06
-1.53282e-05
2.76259e-06
-1.57699e-05
1.11725e-06
-1.55233e-05
-6.69428e-07
-1.45856e-05
-2.45952e-06
-1.30118e-05
-4.09111e-06
-1.09205e-05
-5.387e-06
-8.49404e-06
-6.1735e-06
-5.96913e-06
-6.30954e-06
-3.61477e-06
-5.72354e-06
-1.69822e-06
-4.45061e-06
-4.43949e-07
-2.66623e-06
-7.39248e-07
-6.80391e-07
1.60524e-06
-2.359e-06
4.5428e-06
-4.71424e-06
6.80019e-06
-7.45411e-06
8.21639e-06
-1.03147e-05
8.78234e-06
-1.30618e-05
8.55591e-06
-1.54915e-05
7.62522e-06
-1.74304e-05
6.09212e-06
-1.87369e-05
4.06905e-06
-1.93048e-05
1.68512e-06
-1.90697e-05
-9.04486e-07
-1.80183e-05
-3.51092e-06
-1.61988e-05
-5.91066e-06
-1.37307e-05
-7.85504e-06
-1.08108e-05
-9.09337e-06
-7.70882e-06
-9.41157e-06
-4.74907e-06
-8.68328e-06
-2.27641e-06
-6.92327e-06
-6.10201e-07
-4.33244e-06
-1.34945e-06
-8.32491e-07
2.43773e-06
-2.85644e-06
6.56675e-06
-5.65605e-06
9.5998e-06
-8.87185e-06
1.14322e-05
-1.21968e-05
1.21073e-05
-1.53711e-05
1.17302e-05
-1.81761e-05
1.04302e-05
-2.04285e-05
8.34455e-06
-2.19779e-05
5.61842e-06
-2.27069e-05
2.41413e-06
-2.25365e-05
-1.07487e-06
-2.14355e-05
-4.61195e-06
-1.9434e-05
-7.91216e-06
-1.66396e-05
-1.06494e-05
-1.32517e-05
-1.24813e-05
-9.56711e-06
-1.30962e-05
-5.96985e-06
-1.22805e-05
-2.89747e-06
-9.99564e-06
-7.85604e-07
-6.4443e-06
-2.13506e-06
-9.74789e-07
3.41252e-06
-3.32306e-06
8.91502e-06
-6.53886e-06
1.28156e-05
-1.01972e-05
1.50906e-05
-1.3951e-05
1.5861e-05
-1.75199e-05
1.52992e-05
-2.06772e-05
1.35875e-05
-2.32368e-05
1.09042e-05
-2.50446e-05
7.42622e-06
-2.59746e-05
3.34412e-06
-2.59311e-05
-1.11837e-06
-2.4858e-05
-5.68508e-06
-2.27554e-05
-1.00148e-05
-1.97029e-05
-1.37018e-05
-1.58864e-05
-1.62979e-05
-1.16187e-05
-1.73638e-05
-7.34352e-06
-1.65557e-05
-3.60656e-06
-1.37326e-05
-9.88054e-07
-9.06281e-06
-3.12311e-06
-1.11049e-06
4.52301e-06
-3.76418e-06
1.15687e-05
-7.36452e-06
1.64159e-05
-1.1422e-05
1.91481e-05
-1.55537e-05
1.99927e-05
-1.94662e-05
1.92117e-05
-2.29337e-05
1.70549e-05
-2.57764e-05
1.37469e-05
-2.78449e-05
9.49471e-06
-2.90096e-05
4.50879e-06
-2.9159e-05
-9.68962e-07
-2.82071e-05
-6.63701e-06
-2.61116e-05
-1.21103e-05
-2.29052e-05
-1.69082e-05
-1.87364e-05
-2.04666e-05
-1.39128e-05
-2.21875e-05
-8.92803e-06
-2.15405e-05
-4.44845e-06
-1.82122e-05
-1.23591e-06
-1.22753e-05
-4.35902e-06
-1.24269e-06
5.7657e-06
-4.1848e-06
1.45108e-05
-8.1316e-06
2.03627e-05
-1.25274e-05
2.35439e-05
-1.69589e-05
2.44242e-05
-2.11299e-05
2.33827e-05
-2.48283e-05
2.07533e-05
-2.78941e-05
1.68127e-05
-3.01945e-05
1.17951e-05
-3.16063e-05
5.92064e-06
-3.2008e-05
-5.67223e-07
-3.12827e-05
-7.36237e-06
-2.93355e-05
-1.40574e-05
-2.61306e-05
-2.01131e-05
-2.17473e-05
-2.48499e-05
-1.64515e-05
-2.74833e-05
-1.07605e-05
-2.72315e-05
-5.4634e-06
-2.35093e-05
-1.54806e-06
-1.61907e-05
-5.90708e-06
-1.37694e-06
7.14264e-06
-4.59466e-06
1.77285e-05
-8.841e-06
2.46091e-05
-1.34885e-05
2.81914e-05
-1.81009e-05
2.90365e-05
-2.23941e-05
2.76759e-05
-2.61875e-05
2.45467e-05
-2.93594e-05
1.99846e-05
-3.18111e-05
1.42468e-05
-3.34417e-05
7.55128e-06
-3.41319e-05
1.22922e-07
-3.37397e-05
-7.75459e-06
-3.21133e-05
-1.56838e-05
-2.91278e-05
-2.30986e-05
-2.47543e-05
-2.92234e-05
-1.9163e-05
-3.30745e-05
-1.28423e-05
-3.35523e-05
-6.68364e-06
-2.96679e-05
-1.94509e-06
-2.09292e-05
-7.85217e-06
-1.52583e-06
8.66847e-06
-5.01683e-06
2.12195e-05
-9.50474e-06
2.9097e-05
-1.42805e-05
3.29672e-05
-1.88971e-05
3.36531e-05
-2.31052e-05
3.18841e-05
-2.67806e-05
2.82221e-05
-2.98634e-05
2.30674e-05
-3.23123e-05
1.66957e-05
-3.40699e-05
9.30895e-06
-3.50391e-05
1.09204e-06
-3.50684e-05
-7.72527e-06
-3.39545e-05
-1.67976e-05
-3.14709e-05
-2.55823e-05
-2.74399e-05
-3.32543e-05
-2.18649e-05
-3.86496e-05
-1.51169e-05
-4.03002e-05
-8.12765e-06
-3.66572e-05
-2.45139e-06
-2.66055e-05
-1.03036e-05
-1.71637e-06
1.03848e-05
-5.49942e-06
2.50026e-05
-1.01548e-05
3.37524e-05
-1.48812e-05
3.76935e-05
-1.92454e-05
3.80174e-05
-2.30677e-05
3.57063e-05
-2.63139e-05
3.14683e-05
-2.90158e-05
2.57693e-05
-3.12152e-05
1.88951e-05
-3.29239e-05
1.10177e-05
-3.40929e-05
2.26099e-06
-3.45873e-05
-7.23078e-06
-3.41729e-05
-1.72121e-05
-3.25248e-05
-2.72304e-05
-2.92867e-05
-3.64924e-05
-2.42149e-05
-4.37215e-05
-1.74354e-05
-4.70796e-05
-9.78887e-06
-4.43038e-05
-3.09822e-06
-3.32961e-05
-1.34018e-05
-2.00197e-06
1.23868e-05
-6.12884e-06
2.91295e-05
-1.08447e-05
3.84682e-05
-1.52576e-05
4.21065e-05
-1.89997e-05
4.17595e-05
-2.20165e-05
3.87231e-05
-2.44083e-05
3.38601e-05
-2.6331e-05
2.7692e-05
-2.79348e-05
2.04989e-05
-2.93244e-05
1.24072e-05
-3.05261e-05
3.46272e-06
-3.14558e-05
-6.3011e-06
-3.18855e-05
-1.67823e-05
-3.14224e-05
-2.76935e-05
-2.95296e-05
-3.83852e-05
-2.56487e-05
-4.76024e-05
-1.95011e-05
-5.32272e-05
-1.16119e-05
-5.21931e-05
-3.92732e-06
-4.09807e-05
-1.73291e-05
-2.48116e-06
1.4868e-05
-7.03703e-06
3.36853e-05
-1.16227e-05
4.30539e-05
-1.53082e-05
4.5792e-05
-1.78958e-05
4.43471e-05
-1.95417e-05
4.03691e-05
-2.05354e-05
3.48537e-05
-2.11857e-05
2.83422e-05
-2.17661e-05
2.10794e-05
-2.24863e-05
1.31274e-05
-2.34674e-05
4.44381e-06
-2.47091e-05
-5.05933e-06
-2.60419e-05
-1.54495e-05
-2.70676e-05
-2.66678e-05
-2.71181e-05
-3.83348e-05
-2.53025e-05
-4.94179e-05
-2.07823e-05
-5.77474e-05
-1.34406e-05
-5.95347e-05
-4.99054e-06
-4.94308e-05
-2.23196e-05
-3.32031e-06
1.81883e-05
-8.37388e-06
3.87389e-05
-1.24248e-05
4.71049e-05
-1.4699e-05
4.80662e-05
-1.53685e-05
4.50165e-05
-1.49189e-05
3.99194e-05
-1.38791e-05
3.3814e-05
-1.27203e-05
2.71835e-05
-1.18297e-05
2.01887e-05
-1.15083e-05
1.2806e-05
-1.19687e-05
4.90425e-06
-1.33138e-05
-3.71424e-06
-1.54852e-05
-1.32782e-05
-1.81733e-05
-2.39796e-05
-2.06976e-05
-3.58105e-05
-2.19196e-05
-4.81959e-05
-2.03674e-05
-5.92995e-05
-1.48988e-05
-6.50034e-05
-6.32324e-06
-5.80063e-05
-2.86429e-05
-4.74578e-06
2.29341e-05
-1.01417e-05
4.41348e-05
-1.27484e-05
4.97115e-05
-1.24685e-05
4.77863e-05
-1.01692e-05
4.27172e-05
-6.78344e-06
3.65337e-05
-3.08592e-06
3.01164e-05
3.32678e-07
2.37649e-05
3.02994e-06
1.74914e-05
4.66649e-06
1.11695e-05
4.97749e-06
4.59325e-06
3.76939e-06
-2.50614e-06
9.56203e-07
-1.0465e-05
-3.3437e-06
-1.96797e-05
-8.62555e-06
-3.05287e-05
-1.37424e-05
-4.3079e-05
-1.67242e-05
-5.63177e-05
-1.51156e-05
-6.66121e-05
-7.81949e-06
-6.53024e-05
-3.64624e-05
-6.87494e-06
2.9809e-05
-1.15794e-05
4.88393e-05
-1.07908e-05
4.89229e-05
-6.18131e-06
4.31769e-05
3.27901e-07
3.62079e-05
7.3753e-06
2.94863e-05
1.40735e-05
2.34183e-05
1.9858e-05
1.79804e-05
2.43558e-05
1.29936e-05
2.72906e-05
8.23467e-06
2.84226e-05
3.46123e-06
2.75196e-05
-1.60315e-06
2.43624e-05
-7.3077e-06
1.88082e-05
-1.41256e-05
1.09728e-05
-2.26933e-05
1.60738e-06
-3.37136e-05
-7.32067e-06
-4.73897e-05
-1.21825e-05
-6.17503e-05
-8.87533e-06
-6.86095e-05
-4.53377e-05
-8.9807e-06
3.87897e-05
-9.25779e-06
4.91164e-05
-1.42535e-06
4.10905e-05
9.6301e-06
3.21214e-05
2.11235e-05
2.47146e-05
3.17583e-05
1.88515e-05
4.09411e-05
1.42354e-05
4.84091e-05
1.05124e-05
5.40379e-05
7.36486e-06
5.77337e-05
4.53888e-06
5.93725e-05
1.82235e-06
5.87627e-05
-9.93289e-07
5.56168e-05
-4.16181e-06
4.95497e-05
-8.05844e-06
4.01551e-05
-1.32987e-05
2.73161e-05
-2.08746e-05
1.20244e-05
-3.20979e-05
-2.089e-06
-4.76369e-05
-7.59498e-06
-6.31035e-05
-5.29327e-05
-4.9529e-06
4.37426e-05
8.85382e-06
3.53096e-05
2.78815e-05
2.20628e-05
4.5449e-05
1.4554e-05
6.01857e-05
9.97788e-06
7.20961e-05
6.94106e-06
8.14673e-05
4.86425e-06
8.86017e-05
3.37802e-06
9.37317e-05
2.23485e-06
9.6993e-05
1.27756e-06
9.84144e-05
4.00999e-07
9.79066e-05
-4.8551e-07
9.522e-05
-1.47522e-06
8.98857e-05
-2.72413e-06
8.11127e-05
-4.52578e-06
6.77454e-05
-7.50721e-06
4.86556e-05
-1.30081e-05
2.44997e-05
-2.3481e-05
2.51433e-06
-4.11182e-05
-5.04184e-05
4.37426e-05
7.90522e-05
0.000101115
0.000115669
0.000125647
0.000132588
0.000137452
0.00014083
0.000143065
0.000144343
0.000144744
0.000144258
0.000142783
0.000140059
0.000135533
0.000128026
0.000115018
9.15365e-05
5.04184e-05
)
;

boundaryField
{
    movingWall
    {
        type            calculated;
        value           uniform 0;
    }
    fixedWalls
    {
        type            calculated;
        value           uniform 0;
    }
    frontAndBack
    {
        type            empty;
        value           nonuniform List<scalar> 0();
    }
}


// ************************************************************************* //
