/*--------------------------------*- C++ -*----------------------------------*\
  =========                 |
  \\      /  F ield         | OpenFOAM: The Open Source CFD Toolbox
   \\    /   O peration     | Website:  https://openfoam.org
    \\  /    A nd           | Version:  8
     \\/     M anipulation  |
\*---------------------------------------------------------------------------*/
FoamFile
{
    version     2.0;
    format      ascii;
    class       volVectorField;
    location    "0.5";
    object      U;
}
// * * * * * * * * * * * * * * * * * * * * * * * * * * * * * * * * * * * * * //

dimensions      [0 1 -1 0 0 0 0];

internalField   nonuniform List<vector> 
400
(
(0.000822047 -0.000819654 0)
(0.000333273 0.000430253 0)
(-0.00422289 0.00192445 0)
(-0.0119806 0.0029458 0)
(-0.0216085 0.00345112 0)
(-0.0318582 0.0035154 0)
(-0.0416498 0.00322017 0)
(-0.0500776 0.0026323 0)
(-0.0563945 0.00180485 0)
(-0.0600066 0.000789917 0)
(-0.0604985 -0.000345966 0)
(-0.0576865 -0.00151054 0)
(-0.0516867 -0.00258189 0)
(-0.0429765 -0.00341457 0)
(-0.0324239 -0.00385604 0)
(-0.0212624 -0.00377326 0)
(-0.0109836 -0.00308786 0)
(-0.00313707 -0.00181756 0)
(0.000982967 -0.000177705 0)
(0.000988616 0.000960486 0)
(-0.000364849 -0.000415415 0)
(-0.00581716 0.00581119 0)
(-0.0198415 0.0123171 0)
(-0.0401931 0.0168621 0)
(-0.0641913 0.019107 0)
(-0.0892631 0.0192061 0)
(-0.112997 0.0174398 0)
(-0.133271 0.0141043 0)
(-0.148316 0.0094921 0)
(-0.156753 0.00392409 0)
(-0.157669 -0.00220239 0)
(-0.150727 -0.00837893 0)
(-0.136287 -0.0139819 0)
(-0.115505 -0.0183099 0)
(-0.090362 -0.0206667 0)
(-0.0635661 -0.0204895 0)
(-0.0382829 -0.0175113 0)
(-0.0176697 -0.0119423 0)
(-0.00440862 -0.00477822 0)
(4.50053e-05 0.00110227 0)
(-0.00196109 0.00412774 0)
(-0.0131325 0.0200108 0)
(-0.0367064 0.0348024 0)
(-0.068471 0.0450261 0)
(-0.104576 0.049914 0)
(-0.141597 0.0496518 0)
(-0.176273 0.044785 0)
(-0.205693 0.0359876 0)
(-0.227419 0.0239989 0)
(-0.239558 0.00966855 0)
(-0.240873 -0.0059648 0)
(-0.230921 -0.0216172 0)
(-0.210203 -0.035766 0)
(-0.180281 -0.0467449 0)
(-0.143812 -0.0529408 0)
(-0.104429 -0.0530891 0)
(-0.0663848 -0.046642 0)
(-0.0339648 -0.0341561 0)
(-0.0111887 -0.0177687 0)
(-0.00135007 -0.00243638 0)
(-0.00338211 0.01262 0)
(-0.0199997 0.0424208 0)
(-0.0528 0.0677437 0)
(-0.0952858 0.0846681 0)
(-0.142355 0.0922914 0)
(-0.18987 0.0909634 0)
(-0.233968 0.0815863 0)
(-0.271213 0.0653051 0)
(-0.298729 0.0434196 0)
(-0.314272 0.0174442 0)
(-0.31635 -0.0107818 0)
(-0.304372 -0.0390158 0)
(-0.278828 -0.0646279 0)
(-0.241439 -0.0847559 0)
(-0.195236 -0.0966264 0)
(-0.14449 -0.0980394 0)
(-0.0943477 -0.0879735 0)
(-0.0502263 -0.0671961 0)
(-0.0177652 -0.038857 0)
(-0.00259458 -0.00959542 0)
(-0.00461659 0.0246231 0)
(-0.0262659 0.0724209 0)
(-0.0678037 0.110283 0)
(-0.120414 0.134583 0)
(-0.1777 0.144741 0)
(-0.234863 0.141537 0)
(-0.287575 0.126379 0)
(-0.332044 0.100973 0)
(-0.365105 0.0672418 0)
(-0.384259 0.0274136 0)
(-0.387766 -0.0158202 0)
(-0.374806 -0.0591905 0)
(-0.345678 -0.0988552 0)
(-0.302025 -0.130592 0)
(-0.247005 -0.150229 0)
(-0.185341 -0.15432 0)
(-0.123037 -0.141016 0)
(-0.0668035 -0.110945 0)
(-0.0242549 -0.0679566 0)
(-0.00372356 -0.02011 0)
(-0.00572433 0.039799 0)
(-0.0320426 0.109549 0)
(-0.0818066 0.161963 0)
(-0.143961 0.194288 0)
(-0.21083 0.206751 0)
(-0.277008 0.200888 0)
(-0.337807 0.178817 0)
(-0.38921 0.142904 0)
(-0.427883 0.0957221 0)
(-0.451137 0.0402021 0)
(-0.456978 -0.020144 0)
(-0.444252 -0.0810372 0)
(-0.412881 -0.137385 0)
(-0.36417 -0.183465 0)
(-0.301139 -0.213424 0)
(-0.228767 -0.222138 0)
(-0.153883 -0.20639 0)
(-0.0846852 -0.166129 0)
(-0.031183 -0.105514 0)
(-0.00488647 -0.0339837 0)
(-0.00675613 0.057909 0)
(-0.0374572 0.15337 0)
(-0.0949494 0.222265 0)
(-0.166018 0.263217 0)
(-0.241761 0.277743 0)
(-0.316242 0.268516 0)
(-0.384536 0.238586 0)
(-0.442548 0.191085 0)
(-0.486903 0.129238 0)
(-0.514808 0.0566039 0)
(-0.524023 -0.0225978 0)
(-0.512975 -0.103188 0)
(-0.481012 -0.178869 0)
(-0.428814 -0.242325 0)
(-0.358921 -0.285718 0)
(-0.276267 -0.301696 0)
(-0.188361 -0.284924 0)
(-0.105028 -0.23388 0)
(-0.0391782 -0.152482 0)
(-0.00625094 -0.0515718 0)
(-0.00774998 0.0787897 0)
(-0.0426139 0.203484 0)
(-0.107332 0.2906 0)
(-0.18655 0.340626 0)
(-0.270195 0.3569 0)
(-0.351917 0.343643 0)
(-0.426729 0.305104 0)
(-0.490643 0.245284 0)
(-0.540428 0.168033 0)
(-0.573326 0.0774059 0)
(-0.586921 -0.0218719 0)
(-0.579183 -0.123941 0)
(-0.548718 -0.221462 0)
(-0.49526 -0.305534 0)
(-0.420425 -0.366067 0)
(-0.328612 -0.392849 0)
(-0.227643 -0.377437 0)
(-0.128943 -0.315684 0)
(-0.0488954 -0.21036 0)
(-0.00799432 -0.0735987 0)
(-0.00874346 0.102336 0)
(-0.04762 0.259532 0)
(-0.119038 0.366285 0)
(-0.205406 0.425508 0)
(-0.295524 0.442985 0)
(-0.382799 0.424979 0)
(-0.462419 0.377237 0)
(-0.530778 0.304744 0)
(-0.585047 0.211924 0)
(-0.622736 0.103142 0)
(-0.641415 -0.0166604 0)
(-0.638657 -0.14129 0)
(-0.612226 -0.262696 0)
(-0.5606 -0.370578 0)
(-0.483924 -0.452465 0)
(-0.385335 -0.494656 0)
(-0.272251 -0.484371 0)
(-0.157344 -0.413178 0)
(-0.0609979 -0.281151 0)
(-0.0103159 -0.101165 0)
(-0.00980309 0.128518 0)
(-0.0526702 0.321201 0)
(-0.130248 0.448481 0)
(-0.222426 0.516433 0)
(-0.316904 0.534098 0)
(-0.407097 0.510395 0)
(-0.488715 0.452928 0)
(-0.558903 0.36779 0)
(-0.615601 0.259915 0)
(-0.656922 0.133746 0)
(-0.680713 -0.00592792 0)
(-0.68435 -0.153063 0)
(-0.664792 -0.29943 0)
(-0.619035 -0.433785 0)
(-0.545164 -0.541436 0)
(-0.444086 -0.604725 0)
(-0.321626 -0.605163 0)
(-0.190781 -0.527729 0)
(-0.07617 -0.367224 0)
(-0.013466 -0.135766 0)
(-0.0110766 0.157471 0)
(-0.0581915 0.38831 0)
(-0.141425 0.536155 0)
(-0.237593 0.611358 0)
(-0.333343 0.62737 0)
(-0.422499 0.596553 0)
(-0.501792 0.528786 0)
(-0.569613 0.431402 0)
(-0.625141 0.30976 0)
(-0.667532 0.168123 0)
(-0.695334 0.0107015 0)
(-0.706097 -0.15721 0)
(-0.696218 -0.327955 0)
(-0.661181 -0.490159 0)
(-0.596518 -0.627523 0)
(-0.49979 -0.718409 0)
(-0.373503 -0.737336 0)
(-0.229169 -0.659751 0)
(-0.0951348 -0.471058 0)
(-0.0177951 -0.179349 0)
(-0.0128843 0.1897 0)
(-0.0650633 0.460987 0)
(-0.153545 0.628029 0)
(-0.25116 0.707378 0)
(-0.34369 0.718591 0)
(-0.426065 0.678487 0)
(-0.496763 0.599666 0)
(-0.556057 0.490794 0)
(-0.604906 0.357534 0)
(-0.644019 0.203696 0)
(-0.673153 0.0324673 0)
(-0.690568 -0.15226 0)
(-0.692598 -0.344333 0)
(-0.673521 -0.533437 0)
(-0.626138 -0.70292 0)
(-0.543622 -0.827929 0)
(-0.422998 -0.875291 0)
(-0.271319 -0.807622 0)
(-0.118649 -0.594807 0)
(-0.0238336 -0.234431 0)
(-0.0158809 0.226488 0)
(-0.0749332 0.539924 0)
(-0.168272 0.722418 0)
(-0.263511 0.800271 0)
(-0.346226 0.801685 0)
(-0.413681 0.749127 0)
(-0.467151 0.658279 0)
(-0.509548 0.539098 0)
(-0.544164 0.397334 0)
(-0.573716 0.236048 0)
(-0.599666 0.0570111 0)
(-0.621588 -0.137896 0)
(-0.636498 -0.344997 0)
(-0.638223 -0.556519 0)
(-0.617246 -0.757421 0)
(-0.56183 -0.921588 0)
(-0.461306 -1.00881 0)
(-0.314075 -0.966044 0)
(-0.147398 -0.739469 0)
(-0.0324106 -0.304303 0)
(-0.0213321 0.270623 0)
(-0.0905998 0.626598 0)
(-0.187802 0.816682 0)
(-0.274285 0.883633 0)
(-0.337263 0.867901 0)
(-0.378487 0.798747 0)
(-0.403449 0.694932 0)
(-0.418482 0.567309 0)
(-0.429594 0.421302 0)
(-0.441739 0.25889 0)
(-0.45835 0.0801349 0)
(-0.480817 -0.115495 0)
(-0.507687 -0.327582 0)
(-0.533539 -0.552397 0)
(-0.547835 -0.779025 0)
(-0.534529 -0.983482 0)
(-0.473856 -1.12148 0)
(-0.350709 -1.12366 0)
(-0.181527 -0.903276 0)
(-0.0447671 -0.393252 0)
(-0.0314926 0.327541 0)
(-0.116173 0.723028 0)
(-0.213509 0.905739 0)
(-0.279502 0.947231 0)
(-0.307524 0.904667 0)
(-0.307238 0.814496 0)
(-0.289963 0.697643 0)
(-0.265927 0.564811 0)
(-0.243759 0.420327 0)
(-0.230349 0.264682 0)
(-0.230879 0.0961086 0)
(-0.248652 -0.0883657 0)
(-0.284416 -0.291842 0)
(-0.334975 -0.515665 0)
(-0.391025 -0.755581 0)
(-0.434628 -0.994354 0)
(-0.437735 -1.18973 0)
(-0.367885 -1.26001 0)
(-0.219011 -1.07866 0)
(-0.0623585 -0.50649 0)
(-0.0496638 0.407167 0)
(-0.155604 0.829907 0)
(-0.240813 0.978421 0)
(-0.263933 0.974082 0)
(-0.234051 0.894212 0)
(-0.173091 0.780451 0)
(-0.0990487 0.653218 0)
(-0.0254422 0.521013 0)
(0.0375968 0.385869 0)
(0.0824166 0.246341 0)
(0.103067 0.09895 0)
(0.094914 -0.0612285 0)
(0.0548994 -0.240229 0)
(-0.0172467 -0.444381 0)
(-0.116351 -0.677617 0)
(-0.227147 -0.934241 0)
(-0.318074 -1.18327 0)
(-0.339886 -1.34225 0)
(-0.250862 -1.24739 0)
(-0.0851886 -0.650037 0)
(-0.0779429 0.527711 0)
(-0.204822 0.939813 0)
(-0.243416 1.00802 0)
(-0.183033 0.934429 0)
(-0.0644352 0.811696 0)
(0.0763725 0.67862 0)
(0.217173 0.549773 0)
(0.344201 0.428471 0)
(0.448584 0.313133 0)
(0.524166 0.200152 0)
(0.565996 0.0848268 0)
(0.569438 -0.0386435 0)
(0.529877 -0.177636 0)
(0.443223 -0.34167 0)
(0.308019 -0.541965 0)
(0.130862 -0.787009 0)
(-0.0632678 -1.06753 0)
(-0.218771 -1.32184 0)
(-0.250174 -1.37252 0)
(-0.105652 -0.830972 0)
(-0.103509 0.713659 0)
(-0.222375 1.01519 0)
(-0.131409 0.934327 0)
(0.0740219 0.779766 0)
(0.308451 0.627589 0)
(0.533797 0.49493 0)
(0.733925 0.383389 0)
(0.901422 0.288892 0)
(1.03298 0.206043 0)
(1.12677 0.129705 0)
(1.18086 0.055042 0)
(1.19224 -0.0230758 0)
(1.15624 -0.111047 0)
(1.06603 -0.21809 0)
(0.91308 -0.358168 0)
(0.690449 -0.550733 0)
(0.401951 -0.813854 0)
(0.0823592 -1.1343 0)
(-0.149152 -1.37701 0)
(-0.088607 -1.0353 0)
(-0.00948278 0.891367 0)
(-0.00642468 0.930345 0)
(0.34843 0.679526 0)
(0.739863 0.485321 0)
(1.06842 0.349878 0)
(1.33406 0.253298 0)
(1.54572 0.183286 0)
(1.7099 0.130744 0)
(1.83189 0.0889431 0)
(1.91548 0.0531736 0)
(1.96242 0.0199665 0)
(1.97221 -0.0137237 0)
(1.94164 -0.0514691 0)
(1.86381 -0.0986778 0)
(1.72656 -0.165154 0)
(1.51087 -0.269668 0)
(1.18879 -0.445655 0)
(0.731044 -0.735578 0)
(0.235862 -1.11095 0)
(0.109937 -1.09398 0)
(0.984826 0.482747 0)
(1.27442 0.426398 0)
(1.78702 0.265472 0)
(2.1802 0.162334 0)
(2.4281 0.101803 0)
(2.59235 0.0649462 0)
(2.70731 0.0419129 0)
(2.78815 0.0269429 0)
(2.84334 0.0164897 0)
(2.87793 0.00844117 0)
(2.89452 0.00151003 0)
(2.89382 -0.00520925 0)
(2.87474 -0.0126666 0)
(2.83386 -0.0222493 0)
(2.76356 -0.0367763 0)
(2.64795 -0.0627622 0)
(2.44995 -0.115535 0)
(2.07847 -0.226911 0)
(1.49236 -0.427602 0)
(1.08994 -0.518791 0)
)
;

boundaryField
{
    movingWall
    {
        type            fixedValue;
        value           uniform (3.4 0 0);
    }
    fixedWalls
    {
        type            noSlip;
    }
    frontAndBack
    {
        type            empty;
    }
}


// ************************************************************************* //
