/*--------------------------------*- C++ -*----------------------------------*\
  =========                 |
  \\      /  F ield         | OpenFOAM: The Open Source CFD Toolbox
   \\    /   O peration     | Website:  https://openfoam.org
    \\  /    A nd           | Version:  8
     \\/     M anipulation  |
\*---------------------------------------------------------------------------*/
FoamFile
{
    version     2.0;
    format      ascii;
    class       volVectorField;
    location    "0.1";
    object      U;
}
// * * * * * * * * * * * * * * * * * * * * * * * * * * * * * * * * * * * * * //

dimensions      [0 1 -1 0 0 0 0];

internalField   nonuniform List<vector> 
400
(
(0.000706373 -0.000719986 0)
(0.000302357 0.000360375 0)
(-0.00364413 0.00167072 0)
(-0.0103797 0.00256648 0)
(-0.0187605 0.00300992 0)
(-0.0276842 0.00306377 0)
(-0.036199 0.00279924 0)
(-0.0435089 0.00227764 0)
(-0.0489653 0.00154986 0)
(-0.0520628 0.00066528 0)
(-0.0524575 -0.000316419 0)
(-0.0500072 -0.00131625 0)
(-0.044823 -0.00223247 0)
(-0.0373169 -0.0029447 0)
(-0.0282263 -0.00332615 0)
(-0.0185954 -0.00326399 0)
(-0.00969243 -0.00268758 0)
(-0.00285019 -0.00160333 0)
(0.000790642 -0.000183941 0)
(0.000845364 0.000822118 0)
(-0.000317123 -0.000370092 0)
(-0.00501559 0.00500622 0)
(-0.0171442 0.0106798 0)
(-0.0347949 0.0146558 0)
(-0.0556408 0.0166217 0)
(-0.0774254 0.0167005 0)
(-0.0980316 0.0151383 0)
(-0.115604 0.0122055 0)
(-0.128608 0.00817399 0)
(-0.135867 0.00333753 0)
(-0.136618 -0.00195299 0)
(-0.130598 -0.00726235 0)
(-0.118133 -0.0120667 0)
(-0.100221 -0.0157812 0)
(-0.0785488 -0.0178235 0)
(-0.0554184 -0.0177144 0)
(-0.0335284 -0.0152104 0)
(-0.0155935 -0.010458 0)
(-0.0039677 -0.00426891 0)
(2.63607e-06 0.000893727 0)
(-0.00168109 0.00353268 0)
(-0.011311 0.0172758 0)
(-0.0317073 0.0301558 0)
(-0.0592527 0.0390939 0)
(-0.0906047 0.0433743 0)
(-0.122761 0.0431348 0)
(-0.152861 0.0388555 0)
(-0.178362 0.0311499 0)
(-0.197149 0.0206969 0)
(-0.207604 0.00826418 0)
(-0.208691 -0.00523595 0)
(-0.20006 -0.0187034 0)
(-0.182165 -0.0308543 0)
(-0.156356 -0.040293 0)
(-0.124904 -0.0456652 0)
(-0.090901 -0.0458932 0)
(-0.0579751 -0.0404775 0)
(-0.029806 -0.0298265 0)
(-0.00990274 -0.0156869 0)
(-0.00122515 -0.00227202 0)
(-0.00290056 0.0108416 0)
(-0.0172395 0.0366415 0)
(-0.0456494 0.0586991 0)
(-0.0825318 0.073503 0)
(-0.123444 0.0801847 0)
(-0.16475 0.0790125 0)
(-0.203053 0.070783 0)
(-0.235349 0.0565381 0)
(-0.25914 0.0374666 0)
(-0.272511 0.0149313 0)
(-0.274208 -0.00945398 0)
(-0.263767 -0.0337649 0)
(-0.241642 -0.055778 0)
(-0.209334 -0.0730901 0)
(-0.169444 -0.08337 0)
(-0.125615 -0.084746 0)
(-0.0822372 -0.0763002 0)
(-0.0439475 -0.0585847 0)
(-0.0156434 -0.0341561 0)
(-0.00231845 -0.00860773 0)
(-0.00396653 0.0211776 0)
(-0.0226928 0.0626065 0)
(-0.058762 0.0956219 0)
(-0.104545 0.116899 0)
(-0.154447 0.12581 0)
(-0.20423 0.122985 0)
(-0.250074 0.109673 0)
(-0.288652 0.0874301 0)
(-0.317217 0.0580141 0)
(-0.333632 0.0234323 0)
(-0.336445 -0.0139501 0)
(-0.325009 -0.0513212 0)
(-0.299642 -0.0854254 0)
(-0.2618 -0.112712 0)
(-0.214214 -0.129675 0)
(-0.160924 -0.133392 0)
(-0.107049 -0.122236 0)
(-0.058313 -0.0966031 0)
(-0.0212908 -0.0595778 0)
(-0.00330946 -0.0178743 0)
(-0.00493769 0.0342865 0)
(-0.0277973 0.0948459 0)
(-0.071186 0.140622 0)
(-0.12548 0.16896 0)
(-0.183924 0.179888 0)
(-0.241711 0.17469 0)
(-0.294682 0.155252 0)
(-0.339297 0.12374 0)
(-0.37266 0.0825184 0)
(-0.392477 0.0342359 0)
(-0.397094 -0.0180076 0)
(-0.385605 -0.0705193 0)
(-0.358038 -0.118973 0)
(-0.3156 -0.158552 0)
(-0.26094 -0.184341 0)
(-0.198337 -0.192018 0)
(-0.133611 -0.178799 0)
(-0.0737302 -0.144474 0)
(-0.0272873 -0.0923094 0)
(-0.00432531 -0.0300647 0)
(-0.0058645 0.0500084 0)
(-0.0326911 0.133084 0)
(-0.0830998 0.193374 0)
(-0.145496 0.229313 0)
(-0.211982 0.242014 0)
(-0.277239 0.233755 0)
(-0.336867 0.207271 0)
(-0.38724 0.165442 0)
(-0.425425 0.111252 0)
(-0.449048 0.0479425 0)
(-0.456266 -0.020739 0)
(-0.445846 -0.0903014 0)
(-0.417372 -0.155379 0)
(-0.371567 -0.209806 0)
(-0.310721 -0.247011 0)
(-0.239112 -0.260818 0)
(-0.16315 -0.246679 0)
(-0.0911595 -0.203125 0)
(-0.0341564 -0.133127 0)
(-0.00550632 -0.0454673 0)
(-0.00678584 0.0682637 0)
(-0.0374881 0.177104 0)
(-0.0946341 0.253513 0)
(-0.16462 0.297447 0)
(-0.238424 0.311581 0)
(-0.31031 0.299569 0)
(-0.375784 0.265246 0)
(-0.431303 0.212315 0)
(-0.474058 0.144371 0)
(-0.501719 0.0651457 0)
(-0.512317 -0.0211257 0)
(-0.504263 -0.10933 0)
(-0.476551 -0.193189 0)
(-0.429157 -0.265189 0)
(-0.363649 -0.316877 0)
(-0.28391 -0.339709 0)
(-0.196644 -0.326567 0)
(-0.111521 -0.273778 0)
(-0.0424395 -0.183259 0)
(-0.00699945 -0.0646773 0)
(-0.00773971 0.0890356 0)
(-0.0422986 0.226736 0)
(-0.105886 0.320604 0)
(-0.182741 0.372624 0)
(-0.262729 0.387614 0)
(-0.339839 0.37107 0)
(-0.409702 0.328213 0)
(-0.469102 0.263691 0)
(-0.515587 0.181676 0)
(-0.547076 0.0862416 0)
(-0.561611 -0.0181295 0)
(-0.55729 -0.125987 0)
(-0.532427 -0.23041 0)
(-0.48598 -0.322678 0)
(-0.418334 -0.39234 0)
(-0.332381 -0.427961 0)
(-0.23455 -0.41885 0)
(-0.135578 -0.357783 0)
(-0.0526848 -0.244349 0)
(-0.00896896 -0.0886004 0)
(-0.00878828 0.112382 0)
(-0.0473007 0.281861 0)
(-0.117012 0.394068 0)
(-0.19969 0.453715 0)
(-0.284092 0.468532 0)
(-0.36416 0.446439 0)
(-0.43597 0.394393 0)
(-0.496973 0.318109 0)
(-0.545407 0.222291 0)
(-0.579735 0.111154 0)
(-0.598252 -0.010888 0)
(-0.598899 -0.138457 0)
(-0.579312 -0.264427 0)
(-0.537214 -0.379243 0)
(-0.471295 -0.470559 0)
(-0.382648 -0.523647 0)
(-0.27646 -0.523105 0)
(-0.163811 -0.456287 0)
(-0.0654629 -0.318351 0)
(-0.0116215 -0.11847 0)
(-0.0100634 0.138506 0)
(-0.052863 0.342464 0)
(-0.128376 0.473128 0)
(-0.21535 0.539012 0)
(-0.301468 0.551857 0)
(-0.381003 0.522764 0)
(-0.45095 0.460824 0)
(-0.509891 0.37295 0)
(-0.557179 0.264298 0)
(-0.592208 0.13899 0)
(-0.61388 0.000988735 0)
(-0.620268 -0.144919 0)
(-0.608496 -0.292044 0)
(-0.574976 -0.430652 0)
(-0.516237 -0.546989 0)
(-0.430607 -0.622954 0)
(-0.320608 -0.637346 0)
(-0.196218 -0.569678 0)
(-0.0813918 -0.407331 0)
(-0.0152489 -0.155897 0)
(-0.0118468 0.167933 0)
(-0.0597339 0.408762 0)
(-0.140735 0.55672 0)
(-0.229726 0.625957 0)
(-0.313505 0.633846 0)
(-0.387342 0.595633 0)
(-0.449841 0.522973 0)
(-0.50131 0.424058 0)
(-0.54272 0.304371 0)
(-0.574839 0.167666 0)
(-0.597602 0.0170436 0)
(-0.609636 -0.143896 0)
(-0.607925 -0.309699 0)
(-0.587752 -0.471452 0)
(-0.54325 -0.61499 0)
(-0.469033 -0.719401 0)
(-0.363114 -0.757008 0)
(-0.23195 -0.696714 0)
(-0.101151 -0.51313 0)
(-0.0202992 -0.202979 0)
(-0.0147131 0.20186 0)
(-0.0693118 0.481403 0)
(-0.155361 0.643297 0)
(-0.242778 0.710687 0)
(-0.318127 0.708972 0)
(-0.378847 0.658682 0)
(-0.426146 0.574372 0)
(-0.46277 0.465455 0)
(-0.491806 0.337508 0)
(-0.515797 0.193611 0)
(-0.53612 0.0355957 0)
(-0.552445 -0.134693 0)
(-0.562196 -0.313911 0)
(-0.56008 -0.495231 0)
(-0.538069 -0.665688 0)
(-0.48648 -0.803084 0)
(-0.396856 -0.873641 0)
(-0.268612 -0.833167 0)
(-0.125426 -0.636719 0)
(-0.0274868 -0.262494 0)
(-0.0197722 0.242781 0)
(-0.0839659 0.561594 0)
(-0.173861 0.730266 0)
(-0.253576 0.787192 0)
(-0.311233 0.769162 0)
(-0.348464 0.703076 0)
(-0.370405 0.606372 0)
(-0.382952 0.489286 0)
(-0.39165 0.357058 0)
(-0.400997 0.21172 0)
(-0.414023 0.0535207 0)
(-0.431849 -0.117873 0)
(-0.453036 -0.301962 0)
(-0.472681 -0.495329 0)
(-0.48157 -0.688337 0)
(-0.466053 -0.860254 0)
(-0.409792 -0.973459 0)
(-0.300917 -0.969789 0)
(-0.154572 -0.776917 0)
(-0.0379118 -0.338144 0)
(-0.0289932 0.295466 0)
(-0.107131 0.650792 0)
(-0.196879 0.812567 0)
(-0.257681 0.845792 0)
(-0.283481 0.802773 0)
(-0.283265 0.717127 0)
(-0.267546 0.608295 0)
(-0.245763 0.486311 0)
(-0.225782 0.355317 0)
(-0.213747 0.215865 0)
(-0.214118 0.0664493 0)
(-0.229561 -0.0955327 0)
(-0.260363 -0.272734 0)
(-0.30328 -0.466124 0)
(-0.349781 -0.671619 0)
(-0.384129 -0.873838 0)
(-0.382471 -1.03624 0)
(-0.318 -1.08958 0)
(-0.187306 -0.927873 0)
(-0.0529429 -0.434592 0)
(-0.0452091 0.368524 0)
(-0.141883 0.7489 0)
(-0.219434 0.879335 0)
(-0.240395 0.870557 0)
(-0.213325 0.793462 0)
(-0.158437 0.686473 0)
(-0.0922863 0.568501 0)
(-0.0271787 0.447426 0)
(0.027792 0.325138 0)
(0.0659444 0.200307 0)
(0.0822784 0.0697326 0)
(0.0730548 -0.0710605 0)
(0.0360741 -0.227437 0)
(-0.0282696 -0.404801 0)
(-0.114711 -0.606098 0)
(-0.209279 -0.825517 0)
(-0.284384 -1.03535 0)
(-0.298122 -1.1646 0)
(-0.216628 -1.07484 0)
(-0.0728831 -0.557491 0)
(-0.0699827 0.477673 0)
(-0.183744 0.848095 0)
(-0.216956 0.905566 0)
(-0.161189 0.834219 0)
(-0.0538304 0.718883 0)
(0.0723404 0.59529 0)
(0.197182 0.476838 0)
(0.308421 0.366498 0)
(0.398352 0.262723 0)
(0.461816 0.162131 0)
(0.494799 0.060314 0)
(0.493602 -0.048097 0)
(0.454617 -0.169796 0)
(0.374842 -0.313166 0)
(0.253811 -0.487651 0)
(0.0983155 -0.699628 0)
(-0.0689366 -0.939409 0)
(-0.199266 -1.1524 0)
(-0.220038 -1.18685 0)
(-0.0917485 -0.713983 0)
(-0.0910966 0.643328 0)
(-0.194601 0.913306 0)
(-0.109166 0.837055 0)
(0.0773392 0.693887 0)
(0.28779 0.553587 0)
(0.488077 0.43208 0)
(0.66397 0.330742 0)
(0.80925 0.245694 0)
(0.921454 0.171878 0)
(0.999433 0.10451 0)
(1.04187 0.0390685 0)
(1.04646 -0.029224 0)
(1.00934 -0.106265 0)
(0.9248 -0.200358 0)
(0.785829 -0.323699 0)
(0.587225 -0.49258 0)
(0.333628 -0.720924 0)
(0.0570375 -0.994945 0)
(-0.13828 -1.19754 0)
(-0.0797676 -0.894526 0)
(-0.00338207 0.795851 0)
(0.00412714 0.83152 0)
(0.324383 0.605719 0)
(0.674925 0.429412 0)
(0.966775 0.306496 0)
(1.20044 0.219406 0)
(1.38451 0.156803 0)
(1.52537 0.110255 0)
(1.62831 0.0735827 0)
(1.6971 0.0424791 0)
(1.7336 0.0137585 0)
(1.73755 -0.0153977 0)
(1.70615 -0.0483047 0)
(1.63327 -0.0899449 0)
(1.50812 -0.149162 0)
(1.31411 -0.24238 0)
(1.02732 -0.397807 0)
(0.624114 -0.650237 0)
(0.193421 -0.973981 0)
(0.0896678 -0.954655 0)
(0.873653 0.427936 0)
(1.1346 0.377572 0)
(1.59232 0.233679 0)
(1.94057 0.141563 0)
(2.158 0.0877788 0)
(2.30057 0.055326 0)
(2.39918 0.0352534 0)
(2.46762 0.0223409 0)
(2.5136 0.0134135 0)
(2.54172 0.00659772 0)
(2.55436 0.00075045 0)
(2.55215 -0.00494438 0)
(2.53409 -0.0113591 0)
(2.49699 -0.0197974 0)
(2.43383 -0.0328876 0)
(2.33023 -0.0565593 0)
(2.15278 -0.104303 0)
(1.82162 -0.203363 0)
(1.30564 -0.378913 0)
(0.955764 -0.456523 0)
)
;

boundaryField
{
    movingWall
    {
        type            fixedValue;
        value           uniform (3 0 0);
    }
    fixedWalls
    {
        type            noSlip;
    }
    frontAndBack
    {
        type            empty;
    }
}


// ************************************************************************* //
