/*--------------------------------*- C++ -*----------------------------------*\
  =========                 |
  \\      /  F ield         | OpenFOAM: The Open Source CFD Toolbox
   \\    /   O peration     | Website:  https://openfoam.org
    \\  /    A nd           | Version:  8
     \\/     M anipulation  |
\*---------------------------------------------------------------------------*/
FoamFile
{
    version     2.0;
    format      ascii;
    class       volScalarField;
    location    "0.4";
    object      p;
}
// * * * * * * * * * * * * * * * * * * * * * * * * * * * * * * * * * * * * * //

dimensions      [0 2 -2 0 0 0 0];

internalField   nonuniform List<scalar> 
400
(
3.27634e-05
-0.0215725
-0.0472803
-0.0665929
-0.0738696
-0.0667182
-0.0448611
-0.00941039
0.0374782
0.0926862
0.152144
0.210939
0.263644
0.304917
0.330362
0.337539
0.326986
0.303044
0.274241
0.252925
0.0215351
-0.000839742
-0.020919
-0.0340395
-0.0378678
-0.0307858
-0.0124525
0.0164234
0.0542979
0.0988152
0.146806
0.194388
0.237253
0.271173
0.2927
0.299967
0.293456
0.276335
0.253581
0.231895
0.0487601
0.0178738
-0.00362738
-0.0154292
-0.0184979
-0.0121722
0.00365753
0.0284118
0.0609406
0.0994313
0.141314
0.183292
0.221561
0.252259
0.272089
0.279067
0.273253
0.256836
0.231886
0.201551
0.0717106
0.0294724
0.00311335
-0.0101388
-0.0140931
-0.00895606
0.00509027
0.0274897
0.0573684
0.0933101
0.133134
0.17382
0.211647
0.242596
0.262961
0.270134
0.263495
0.244412
0.212794
0.169931
0.0832789
0.0295727
-0.00244513
-0.0180216
-0.0234205
-0.0195563
-0.00682719
0.0142665
0.0431271
0.078704
0.119133
0.161539
0.202077
0.236269
0.259627
0.268539
0.261422
0.238805
0.1988
0.141717
0.0779365
0.0133173
-0.0243734
-0.0424897
-0.0494443
-0.046709
-0.0347918
-0.0140567
0.0152301
0.0524172
0.0959642
0.1431
0.189734
0.230701
0.260378
0.273709
0.267746
0.241954
0.192672
0.119735
0.0509752
-0.0238506
-0.0668821
-0.0873846
-0.0957299
-0.0938446
-0.0822461
-0.0610587
-0.0301123
0.0104481
0.0595059
0.114462
0.170964
0.223005
0.263467
0.285314
0.283618
0.256252
0.197344
0.106385
-0.00196153
-0.0862763
-0.134091
-0.156528
-0.16587
-0.164468
-0.152776
-0.130563
-0.0970719
-0.0517495
0.00492835
0.0707437
0.141219
0.209463
0.26655
0.302812
0.310455
0.284797
0.216672
0.104924
-0.0851274
-0.178297
-0.230138
-0.253726
-0.263378
-0.261948
-0.249804
-0.226249
-0.189744
-0.138768
-0.0728128
0.00666352
0.0953959
0.185768
0.266853
0.325648
0.350304
0.332039
0.256416
0.120716
-0.202813
-0.304388
-0.35917
-0.382526
-0.391237
-0.388886
-0.375805
-0.35074
-0.311151
-0.25421
-0.177964
-0.0825495
0.028571
0.147524
0.26146
0.353447
0.406154
0.404437
0.325366
0.162686
-0.359611
-0.469442
-0.525349
-0.545871
-0.55122
-0.546168
-0.531144
-0.504262
-0.461747
-0.399073
-0.312293
-0.199505
-0.0625046
0.0914523
0.248169
0.386582
0.482457
0.511327
0.436831
0.245343
-0.561164
-0.679393
-0.732965
-0.745657
-0.743026
-0.731785
-0.71265
-0.683006
-0.637564
-0.569681
-0.472832
-0.342267
-0.177035
0.0175464
0.227223
0.427431
0.586133
0.666148
0.610735
0.391912
-0.816078
-0.942543
-0.986704
-0.982141
-0.963183
-0.939476
-0.912103
-0.877477
-0.828401
-0.755647
-0.649544
-0.501716
-0.30731
-0.0680305
0.203929
0.482464
0.7282
0.888229
0.876692
0.639572
-1.1405
-1.27206
-1.29194
-1.25301
-1.20369
-1.15734
-1.11497
-1.07137
-1.01676
-0.938744
-0.82398
-0.659829
-0.43652
-0.150377
0.191301
0.564559
0.925659
1.20498
1.27859
1.04886
-1.56847
-1.69024
-1.65433
-1.55141
-1.45007
-1.36643
-1.29972
-1.24155
-1.17838
-1.09381
-0.970348
-0.790653
-0.539339
-0.205842
0.210578
0.693569
1.20183
1.65294
1.88001
1.71923
-2.17282
-2.23447
-2.07777
-1.8627
-1.67909
-1.53999
-1.43848
-1.36003
-1.28534
-1.19288
-1.06044
-0.865768
-0.587504
-0.207127
0.287122
0.893212
1.58347
2.27486
2.76574
2.80669
-3.10745
-2.96291
-2.56145
-2.16373
-1.85999
-1.6464
-1.50179
-1.40026
-1.31365
-1.21393
-1.0737
-0.86567
-0.562328
-0.136288
0.438231
1.18114
2.09285
3.11179
4.04049
4.55114
-4.75108
-3.95118
-3.07157
-2.40481
-1.9458
-1.64687
-1.46125
-1.34327
-1.25208
-1.15215
-1.01103
-0.796975
-0.47669
-0.0130903
0.637247
1.52566
2.69959
4.16138
5.84684
7.45028
-8.17031
-5.22437
-3.35606
-2.36341
-1.78024
-1.43901
-1.25465
-1.15662
-1.09076
-1.01617
-0.89829
-0.703653
-0.396538
0.0671485
0.747581
1.73452
3.15384
5.18359
8.27897
12.6593
-14.5657
-6.45175
-2.89296
-1.69354
-1.16836
-0.919617
-0.832742
-0.824374
-0.836389
-0.830011
-0.774503
-0.640597
-0.395483
0.00163481
0.612024
1.54513
3.01925
5.5439
10.6836
20.3911
)
;

boundaryField
{
    movingWall
    {
        type            zeroGradient;
    }
    fixedWalls
    {
        type            zeroGradient;
    }
    frontAndBack
    {
        type            empty;
    }
}


// ************************************************************************* //
