/*--------------------------------*- C++ -*----------------------------------*\
  =========                 |
  \\      /  F ield         | OpenFOAM: The Open Source CFD Toolbox
   \\    /   O peration     | Website:  https://openfoam.org
    \\  /    A nd           | Version:  8
     \\/     M anipulation  |
\*---------------------------------------------------------------------------*/
FoamFile
{
    version     2.0;
    format      ascii;
    class       surfaceScalarField;
    location    "0.4";
    object      phi;
}
// * * * * * * * * * * * * * * * * * * * * * * * * * * * * * * * * * * * * * //

dimensions      [0 3 -1 0 0 0 0];

internalField   nonuniform List<scalar> 
760
(
4.79469e-08
-4.82217e-08
-9.38327e-08
1.41779e-07
-4.34639e-07
3.40806e-07
-9.10778e-07
4.76137e-07
-1.45286e-06
5.42079e-07
-1.99872e-06
5.45867e-07
-2.49546e-06
4.96733e-07
-2.8987e-06
4.03247e-07
-3.17188e-06
2.73176e-07
-3.2868e-06
1.14915e-07
-3.22605e-06
-6.07433e-08
-2.98673e-06
-2.39321e-07
-2.58429e-06
-4.02436e-07
-2.05538e-06
-5.28912e-07
-1.45799e-06
-5.97392e-07
-8.67669e-07
-5.90323e-07
-3.68719e-07
-4.98953e-07
-4.01387e-08
-3.28577e-07
6.80882e-08
-1.0822e-07
6.80933e-08
-1.38412e-07
9.01909e-08
-6.93196e-07
6.96562e-07
-1.63216e-06
1.27977e-06
-2.83851e-06
1.68248e-06
-4.1734e-06
1.87697e-06
-5.50124e-06
1.87371e-06
-6.69981e-06
1.69531e-06
-7.664e-06
1.36743e-06
-8.30775e-06
9.16935e-07
-8.56745e-06
3.74607e-07
-8.40726e-06
-2.20935e-07
-7.82611e-06
-8.20477e-07
-6.86433e-06
-1.36421e-06
-5.60754e-06
-1.7857e-06
-4.18489e-06
-2.02005e-06
-2.75898e-06
-2.01623e-06
-1.50566e-06
-1.75228e-06
-5.83156e-07
-1.25109e-06
-9.03072e-08
-6.01077e-07
-2.22083e-08
-3.60083e-07
4.50274e-07
-1.35941e-06
1.69589e-06
-2.86736e-06
2.78772e-06
-4.70976e-06
3.52489e-06
-6.69768e-06
3.86489e-06
-8.64772e-06
3.82375e-06
-1.0393e-05
3.44057e-06
-1.17887e-05
2.76317e-06
-1.27166e-05
1.84476e-06
-1.30896e-05
7.47702e-07
-1.286e-05
-4.50559e-07
-1.20271e-05
-1.65339e-06
-1.06458e-05
-2.74551e-06
-8.83112e-06
-3.60039e-06
-6.75592e-06
-4.09524e-06
-4.63853e-06
-4.13362e-06
-2.7176e-06
-3.6732e-06
-1.21504e-06
-2.75365e-06
-2.90788e-07
-1.52533e-06
-3.12994e-07
-5.62315e-07
1.01259e-06
-1.99013e-06
3.1237e-06
-4.04011e-06
4.83769e-06
-6.46861e-06
5.95339e-06
-9.03873e-06
6.43501e-06
-1.15301e-05
6.31508e-06
-1.37451e-05
5.65559e-06
-1.55131e-05
4.53115e-06
-1.6694e-05
3.02567e-06
-1.71841e-05
1.23779e-06
-1.69237e-05
-7.10879e-07
-1.59074e-05
-2.66975e-06
-1.41931e-05
-4.45978e-06
-1.19099e-05
-5.88358e-06
-9.25805e-06
-6.74711e-06
-6.49844e-06
-6.89322e-06
-3.92785e-06
-6.24379e-06
-1.83992e-06
-4.84158e-06
-4.78598e-07
-2.88666e-06
-7.91594e-07
-7.43602e-07
1.75619e-06
-2.57243e-06
4.95253e-06
-5.13383e-06
7.3991e-06
-8.11085e-06
8.93041e-06
-1.1219e-05
9.54313e-06
-1.42064e-05
9.30248e-06
-1.68534e-05
8.3026e-06
-1.8972e-05
6.64981e-06
-2.04073e-05
4.46095e-06
-2.10412e-05
1.87164e-06
-2.08001e-05
-9.51965e-07
-1.96658e-05
-3.80407e-06
-1.76877e-05
-6.43784e-06
-1.4995e-05
-8.57631e-06
-1.1803e-05
-9.93914e-06
-8.40914e-06
-1.0287e-05
-5.17229e-06
-9.48063e-06
-2.47282e-06
-7.54105e-06
-6.59828e-07
-4.69965e-06
-1.45142e-06
-9.08688e-07
2.66488e-06
-3.11079e-06
7.15463e-06
-6.15166e-06
1.044e-05
-9.64228e-06
1.2421e-05
-1.32526e-05
1.31534e-05
-1.6704e-05
1.27539e-05
-1.97614e-05
1.136e-05
-2.22265e-05
9.11494e-06
-2.39343e-05
6.1687e-06
-2.47538e-05
2.69112e-06
-2.45942e-05
-1.11156e-06
-2.34161e-05
-4.98216e-06
-2.12474e-05
-8.60647e-06
-1.82024e-05
-1.16214e-05
-1.44981e-05
-1.36434e-05
-1.04622e-05
-1.4323e-05
-6.52024e-06
-1.34225e-05
-3.15726e-06
-1.0904e-05
-8.52338e-07
-7.00457e-06
-2.30376e-06
-1.06169e-06
3.72658e-06
-3.61126e-06
9.7042e-06
-7.09766e-06
1.39264e-05
-1.10627e-05
1.6386e-05
-1.51345e-05
1.72252e-05
-1.90137e-05
1.66331e-05
-2.24572e-05
1.48036e-05
-2.52638e-05
1.19215e-05
-2.7264e-05
8.16894e-06
-2.83166e-05
3.74373e-06
-2.83112e-05
-1.11697e-06
-2.71791e-05
-6.11423e-06
-2.4913e-05
-1.08726e-05
-2.15939e-05
-1.49405e-05
-1.74221e-05
-1.78152e-05
-1.27422e-05
-1.90029e-05
-8.04717e-06
-1.81176e-05
-3.94447e-06
-1.50067e-05
-1.07633e-06
-9.8727e-06
-3.3801e-06
-1.20554e-06
4.93211e-06
-4.07817e-06
1.25768e-05
-7.97149e-06
1.78197e-05
-1.23602e-05
2.07748e-05
-1.68359e-05
2.17009e-05
-2.10864e-05
2.08836e-05
-2.48703e-05
1.85875e-05
-2.79935e-05
1.50447e-05
-3.02912e-05
1.04666e-05
-3.16173e-05
5.0698e-06
-3.18426e-05
-8.91616e-07
-3.08638e-05
-7.0931e-06
-2.86242e-05
-1.31122e-05
-2.515e-05
-1.84146e-05
-2.05979e-05
-2.23674e-05
-1.53045e-05
-2.42963e-05
-9.81881e-06
-2.36032e-05
-4.88536e-06
-1.99402e-05
-1.35264e-06
-1.34054e-05
-4.73274e-06
-1.34304e-06
6.27515e-06
-4.51559e-06
1.57494e-05
-8.76969e-06
2.20738e-05
-1.35123e-05
2.55174e-05
-1.83044e-05
2.64931e-05
-2.28325e-05
2.54117e-05
-2.68704e-05
2.26254e-05
-3.02453e-05
1.84196e-05
-3.28101e-05
1.30315e-05
-3.44251e-05
6.68479e-06
-3.49489e-05
-3.67806e-07
-3.42425e-05
-7.7995e-06
-3.21893e-05
-1.51653e-05
-2.87368e-05
-2.18672e-05
-2.39611e-05
-2.71431e-05
-1.81498e-05
-3.01076e-05
-1.18767e-05
-2.98763e-05
-6.02561e-06
-2.57912e-05
-1.70277e-06
-1.77283e-05
-6.43551e-06
-1.4798e-06
7.75495e-06
-4.93325e-06
1.92028e-05
-9.49237e-06
2.66329e-05
-1.44912e-05
3.05162e-05
-1.94687e-05
3.14705e-05
-2.41251e-05
3.00681e-05
-2.82685e-05
2.67688e-05
-3.1767e-05
2.1918e-05
-3.45103e-05
1.57747e-05
-3.63821e-05
8.55659e-06
-3.72431e-05
4.93255e-07
-3.69266e-05
-8.11606e-06
-3.52518e-05
-1.68401e-05
-3.20656e-05
-2.50534e-05
-2.73205e-05
-3.18881e-05
-2.11928e-05
-3.62353e-05
-1.42203e-05
-3.68489e-05
-7.40128e-06
-3.26102e-05
-2.15011e-06
-2.29794e-05
-8.58561e-06
-1.62925e-06
9.38419e-06
-5.35618e-06
2.29298e-05
-1.01536e-05
3.14303e-05
-1.52727e-05
3.56354e-05
-2.02433e-05
3.64411e-05
-2.48029e-05
3.46277e-05
-2.88195e-05
3.07855e-05
-3.22272e-05
2.53257e-05
-3.49768e-05
1.85244e-05
-3.7e-05
1.05797e-05
-3.8182e-05
1.67534e-06
-3.83471e-05
-7.95095e-06
-3.72589e-05
-1.79283e-05
-3.46516e-05
-2.76607e-05
-3.03104e-05
-3.62293e-05
-2.42201e-05
-4.23256e-05
-1.67809e-05
-4.42881e-05
-9.0315e-06
-4.03596e-05
-2.7221e-06
-2.92888e-05
-1.13077e-05
-1.82074e-06
1.12049e-05
-5.83799e-06
2.6947e-05
-1.07922e-05
3.63846e-05
-1.58406e-05
4.06837e-05
-2.05285e-05
4.11291e-05
-2.46671e-05
3.87662e-05
-2.8219e-05
3.43373e-05
-3.12151e-05
2.83218e-05
-3.36956e-05
2.10049e-05
-3.56677e-05
1.25518e-05
-3.70716e-05
3.07924e-06
-3.7753e-05
-7.26955e-06
-3.74456e-05
-1.82358e-05
-3.57785e-05
-2.93277e-05
-3.23397e-05
-3.96682e-05
-2.68349e-05
-4.78304e-05
-1.93812e-05
-5.17419e-05
-1.09044e-05
-4.88364e-05
-3.45328e-06
-3.67399e-05
-1.4761e-05
-2.11281e-06
1.33177e-05
-6.47626e-06
3.13105e-05
-1.14757e-05
4.1384e-05
-1.61746e-05
4.53827e-05
-2.01873e-05
4.51417e-05
-2.34552e-05
4.20342e-05
-2.60822e-05
3.69643e-05
-2.823e-05
3.04696e-05
-3.00549e-05
2.28299e-05
-3.1666e-05
1.41629e-05
-3.30893e-05
4.50255e-06
-3.42315e-05
-6.12729e-06
-3.48413e-05
-1.76261e-05
-3.4481e-05
-2.96879e-05
-3.25451e-05
-4.16042e-05
-2.83903e-05
-5.19851e-05
-2.1673e-05
-5.84592e-05
-1.29484e-05
-5.7561e-05
-4.38842e-06
-4.52999e-05
-1.91494e-05
-2.61383e-06
1.59316e-05
-7.42208e-06
3.61187e-05
-1.2274e-05
4.62359e-05
-1.6192e-05
4.93007e-05
-1.89673e-05
4.79171e-05
-2.07619e-05
4.38287e-05
-2.18767e-05
3.80792e-05
-2.26352e-05
3.12281e-05
-2.33267e-05
2.35214e-05
-2.41758e-05
1.5012e-05
-2.53163e-05
5.64304e-06
-2.67539e-05
-4.68966e-06
-2.83114e-05
-1.60686e-05
-2.95589e-05
-2.84405e-05
-2.97592e-05
-4.14039e-05
-2.791e-05
-5.38343e-05
-2.30418e-05
-6.33273e-05
-1.49722e-05
-6.56306e-05
-5.58017e-06
-5.46919e-05
-2.47296e-05
-3.50778e-06
1.94394e-05
-8.85366e-06
4.14646e-05
-1.31481e-05
5.05303e-05
-1.55723e-05
5.17249e-05
-1.63041e-05
4.86489e-05
-1.58504e-05
4.33749e-05
-1.47645e-05
3.69933e-05
-1.35433e-05
3.00069e-05
-1.25995e-05
2.25776e-05
-1.22603e-05
1.46728e-05
-1.2764e-05
6.14667e-06
-1.42357e-05
-3.21792e-06
-1.66306e-05
-1.36737e-05
-1.96309e-05
-2.54401e-05
-2.2506e-05
-3.85288e-05
-2.4001e-05
-5.23394e-05
-2.2455e-05
-6.48733e-05
-1.65316e-05
-7.15541e-05
-7.05598e-06
-6.41675e-05
-3.17856e-05
-5.04926e-06
2.44886e-05
-1.08034e-05
4.72187e-05
-1.35998e-05
5.33268e-05
-1.33268e-05
5.14518e-05
-1.08945e-05
4.62166e-05
-7.2837e-06
3.97642e-05
-3.31107e-06
3.30207e-05
3.94782e-07
2.6301e-05
3.35643e-06
1.96159e-05
5.20026e-06
1.2829e-05
5.62669e-06
5.72023e-06
4.40683e-06
-1.99806e-06
1.4217e-06
-1.06886e-05
-3.2317e-06
-2.07867e-05
-9.03605e-06
-3.27244e-05
-1.47573e-05
-4.66182e-05
-1.82161e-05
-6.14144e-05
-1.66323e-05
-7.31379e-05
-8.67516e-06
-7.21246e-05
-4.04607e-05
-7.38831e-06
3.18769e-05
-1.24968e-05
5.23272e-05
-1.17303e-05
5.25603e-05
-6.85523e-06
4.65767e-05
9.2508e-08
3.92688e-05
7.66994e-06
3.21868e-05
1.4929e-05
2.57616e-05
2.12596e-05
1.99705e-05
2.62502e-05
1.46253e-05
2.95891e-05
9.49006e-06
3.10006e-05
4.30874e-06
3.02133e-05
-1.21071e-06
2.69647e-05
-7.43997e-06
2.10667e-05
-1.48887e-05
1.26013e-05
-2.42591e-05
2.34028e-06
-3.63571e-05
-7.58858e-06
-5.14856e-05
-1.31622e-05
-6.75643e-05
-9.73689e-06
-7.555e-05
-5.01976e-05
-9.78352e-06
4.16604e-05
-1.02667e-05
5.28104e-05
-1.98543e-06
4.4279e-05
9.82641e-06
3.47649e-05
2.21878e-05
2.69074e-05
3.37065e-05
2.06681e-05
4.37343e-05
1.57338e-05
5.19718e-05
1.1733e-05
5.82668e-05
8.33026e-06
6.25004e-05
5.25645e-06
6.45221e-05
2.28704e-06
6.41089e-05
-7.97527e-07
6.09343e-05
-4.26536e-06
5.45601e-05
-8.51443e-06
4.45112e-05
-1.42102e-05
3.0605e-05
-2.24509e-05
1.38574e-05
-3.4738e-05
-1.78968e-06
-5.19172e-05
-8.13373e-06
-6.92059e-05
-5.83313e-05
-5.67355e-06
4.7334e-05
9.02277e-06
3.81141e-05
2.94528e-05
2.38489e-05
4.83953e-05
1.58224e-05
6.43755e-05
1.09273e-05
7.7383e-05
7.66063e-06
8.7703e-05
5.41378e-06
9.56392e-05
3.79682e-06
0.000101424
2.54562e-06
0.000105189
1.49169e-06
0.000106953
5.22488e-07
0.000106614
-4.58362e-07
0.000103897
-1.54849e-06
9.82943e-05
-2.91166e-06
8.89431e-05
-4.85905e-06
7.45616e-05
-8.06941e-06
5.38541e-05
-1.40304e-05
2.74382e-05
-2.55013e-05
3.14857e-06
-4.49163e-05
-5.51828e-05
4.7334e-05
8.54481e-05
0.000109297
0.000125119
0.000136047
0.000143707
0.000149121
0.000152918
0.000155464
0.000156955
0.000157478
0.000157019
0.000155471
0.000152559
0.0001477
0.000139631
0.0001256
0.000100099
5.51828e-05
)
;

boundaryField
{
    movingWall
    {
        type            calculated;
        value           uniform 0;
    }
    fixedWalls
    {
        type            calculated;
        value           uniform 0;
    }
    frontAndBack
    {
        type            empty;
        value           nonuniform List<scalar> 0();
    }
}


// ************************************************************************* //
