/*--------------------------------*- C++ -*----------------------------------*\
  =========                 |
  \\      /  F ield         | OpenFOAM: The Open Source CFD Toolbox
   \\    /   O peration     | Website:  https://openfoam.org
    \\  /    A nd           | Version:  8
     \\/     M anipulation  |
\*---------------------------------------------------------------------------*/
FoamFile
{
    version     2.0;
    format      ascii;
    class       volScalarField;
    location    "0.1";
    object      p;
}
// * * * * * * * * * * * * * * * * * * * * * * * * * * * * * * * * * * * * * //

dimensions      [0 2 -2 0 0 0 0];

internalField   nonuniform List<scalar> 
400
(
1.16398e-07
-0.0223681
-0.0490164
-0.0690542
-0.0767059
-0.0696327
-0.047583
-0.0116952
0.0358398
0.0918627
0.152259
0.21206
0.265759
0.307919
0.334042
0.34161
0.331133
0.306996
0.277853
0.256261
0.0210921
-0.00199775
-0.0228051
-0.0364554
-0.0405568
-0.0334954
-0.0149431
0.0143661
0.0528517
0.0981188
0.146957
0.195436
0.239179
0.273879
0.296006
0.30363
0.297214
0.279962
0.256936
0.234965
0.04767
0.0161626
-0.00587748
-0.0180539
-0.0212926
-0.0149193
0.00116928
0.0263727
0.0595108
0.0987378
0.141448
0.184298
0.223422
0.254877
0.275288
0.282604
0.276864
0.260287
0.234999
0.204242
0.0699742
0.0271349
0.00032448
-0.0131973
-0.0172344
-0.0119835
0.00236831
0.0252498
0.0557657
0.0924751
0.133166
0.174773
0.21351
0.24527
0.266251
0.273766
0.267161
0.247828
0.215716
0.172202
0.0809499
0.026542
-0.00592705
-0.02172
-0.0271427
-0.0231125
-0.0100343
0.0115811
0.0411248
0.0775315
0.118913
0.162349
0.203922
0.23905
0.263124
0.272422
0.265306
0.242317
0.201591
0.143541
0.0749393
0.00944096
-0.028761
-0.0470855
-0.0540384
-0.0511096
-0.0388165
-0.0175284
0.0124901
0.0505881
0.0952106
0.143546
0.191421
0.233544
0.264131
0.277968
0.27201
0.245713
0.195415
0.121072
0.0471143
-0.0288357
-0.072486
-0.0932281
-0.101585
-0.0995171
-0.0875517
-0.0658102
-0.0341026
0.00744843
0.0577308
0.114114
0.172159
0.225699
0.267406
0.290011
0.288418
0.260439
0.200151
0.107188
-0.00703052
-0.0927714
-0.141352
-0.164099
-0.173515
-0.171995
-0.160006
-0.137298
-0.103067
-0.0567069
0.00134371
0.0688594
0.14128
0.211529
0.270401
0.30789
0.315915
0.289631
0.219717
0.105177
-0.0919293
-0.186867
-0.239654
-0.263662
-0.273508
-0.272104
-0.259819
-0.235921
-0.19879
-0.146806
-0.0793722
0.00209317
0.0932698
0.186346
0.270036
0.33086
0.356494
0.337803
0.259999
0.120509
-0.212075
-0.315781
-0.37171
-0.395634
-0.404723
-0.402629
-0.389677
-0.364547
-0.324579
-0.266786
-0.189053
-0.0913965
0.0227325
0.145287
0.262998
0.358281
0.413059
0.411522
0.330019
0.162352
-0.372273
-0.484596
-0.541852
-0.563111
-0.569072
-0.564592
-0.550077
-0.523549
-0.481063
-0.417864
-0.329747
-0.214571
-0.0739988
0.0846213
0.246657
0.390217
0.489971
0.520294
0.443476
0.245678
-0.578377
-0.699443
-0.754526
-0.768092
-0.766309
-0.755995
-0.737827
-0.709071
-0.664221
-0.596325
-0.498488
-0.365566
-0.196293
0.00408581
0.220955
0.428802
0.594109
0.677853
0.620934
0.394542
-0.839211
-0.96882
-1.01454
-1.01085
-0.992875
-0.970393
-0.944438
-0.911275
-0.863449
-0.79134
-0.684786
-0.534837
-0.336095
-0.089936
0.19129
0.480552
0.736667
0.904055
0.893028
0.647566
-1.1712
-1.30613
-1.32732
-1.28895
-1.24047
-1.19544
-1.1548
-1.11316
-1.06044
-0.983763
-0.86918
-0.703294
-0.475534
-0.181572
0.171479
0.558981
0.935285
1.22726
1.30527
1.06776
-1.6089
-1.73401
-1.69851
-1.59518
-1.49405
-1.41145
-1.3465
-1.29056
-1.22979
-1.14712
-1.0244
-0.843337
-0.587512
-0.245368
0.184464
0.685437
1.21463
1.68559
1.92373
1.75859
-2.22637
-2.29047
-2.13186
-1.91429
-1.72951
-1.59064
-1.49053
-1.4142
-1.34235
-1.25201
-1.12059
-0.924687
-0.641658
-0.251703
0.258022
0.885972
1.60363
2.32407
2.83656
2.88203
-3.1806
-3.03478
-2.62622
-2.22223
-1.91501
-1.70025
-1.55636
-1.45677
-1.37272
-1.27524
-1.13598
-0.926432
-0.61764
-0.180684
0.411735
1.18077
2.12719
3.18659
4.15282
4.6862
-4.85897
-4.04425
-3.1469
-2.46799
-2.00222
-1.7004
-1.51465
-1.39829
-1.30949
-1.21168
-1.07125
-0.855085
-0.528332
-0.0521046
0.619022
1.53855
2.75586
4.27297
6.02169
7.68507
-8.3547
-5.34409
-3.43514
-2.42329
-1.83082
-1.48582
-1.30137
-1.20539
-1.14237
-1.07021
-0.953096
-0.756176
-0.442098
0.0352575
0.738566
1.76094
3.2329
5.33804
8.54215
13.0667
-14.9117
-6.59532
-2.95393
-1.73246
-1.20042
-0.950308
-0.865753
-0.861632
-0.878301
-0.8758
-0.82227
-0.687148
-0.436038
-0.0261409
0.606443
1.57522
3.10638
5.72556
11.0357
21.0335
)
;

boundaryField
{
    movingWall
    {
        type            zeroGradient;
    }
    fixedWalls
    {
        type            zeroGradient;
    }
    frontAndBack
    {
        type            empty;
    }
}


// ************************************************************************* //
