/*--------------------------------*- C++ -*----------------------------------*\
  =========                 |
  \\      /  F ield         | OpenFOAM: The Open Source CFD Toolbox
   \\    /   O peration     | Website:  https://openfoam.org
    \\  /    A nd           | Version:  8
     \\/     M anipulation  |
\*---------------------------------------------------------------------------*/
FoamFile
{
    version     2.0;
    format      ascii;
    class       surfaceScalarField;
    location    "0.1";
    object      phi;
}
// * * * * * * * * * * * * * * * * * * * * * * * * * * * * * * * * * * * * * //

dimensions      [0 3 -1 0 0 0 0];

internalField   nonuniform List<scalar> 
760
(
4.8082e-08
-4.80794e-08
-9.49602e-08
1.43041e-07
-4.39063e-07
3.44105e-07
-9.19378e-07
4.80314e-07
-1.46612e-06
5.46746e-07
-2.01687e-06
5.50747e-07
-2.51846e-06
5.01591e-07
-2.92626e-06
4.07806e-07
-3.20335e-06
2.77091e-07
-3.3211e-06
1.1775e-07
-3.26162e-06
-5.94816e-08
-3.02154e-06
-2.4008e-07
-2.61607e-06
-4.05467e-07
-2.08195e-06
-5.3412e-07
-1.47772e-06
-6.04233e-07
-8.79919e-07
-5.97805e-07
-3.7416e-07
-5.05759e-07
-4.08403e-08
-3.33319e-07
6.90148e-08
-1.09854e-07
6.9017e-08
-1.40598e-07
9.25149e-08
-7.00465e-07
7.02908e-07
-1.64702e-06
1.29066e-06
-2.86294e-06
1.69624e-06
-4.20854e-06
1.89234e-06
-5.5476e-06
1.88981e-06
-6.75741e-06
1.7114e-06
-7.73221e-06
1.3826e-06
-8.38512e-06
9.30008e-07
-8.65149e-06
3.84112e-07
-8.49436e-06
-2.16604e-07
-7.91171e-06
-8.22731e-07
-6.94336e-06
-1.37382e-06
-5.67513e-06
-1.80235e-06
-4.23731e-06
-2.04206e-06
-2.79455e-06
-2.04057e-06
-1.52535e-06
-1.77496e-06
-5.90675e-07
-1.268e-06
-9.13439e-08
-6.09188e-07
-2.23236e-08
-3.63373e-07
4.55888e-07
-1.37137e-06
1.7109e-06
-2.89149e-06
2.81078e-06
-4.74861e-06
3.55336e-06
-6.75285e-06
3.89658e-06
-8.72004e-06
3.857e-06
-1.04825e-05
3.47384e-06
-1.18945e-05
2.7946e-06
-1.28364e-05
1.87192e-06
-1.32199e-05
7.67591e-07
-1.29953e-05
-4.41185e-07
-1.21607e-05
-1.65736e-06
-1.07701e-05
-2.76439e-06
-8.93882e-06
-3.63364e-06
-6.84124e-06
-4.13965e-06
-4.69849e-06
-4.18332e-06
-2.75299e-06
-3.72045e-06
-1.23058e-06
-2.7904e-06
-2.94259e-07
-1.54551e-06
-3.1658e-07
-5.67393e-07
1.02328e-06
-2.00779e-06
3.1513e-06
-4.07535e-06
4.87834e-06
-6.52486e-06
6.00286e-06
-9.11811e-06
6.48984e-06
-1.16337e-05
6.37257e-06
-1.3873e-05
5.71313e-06
-1.56639e-05
4.58555e-06
-1.68648e-05
3.07279e-06
-1.73697e-05
1.27252e-06
-1.71169e-05
-6.94001e-07
-1.60987e-05
-2.67552e-06
-1.43722e-05
-4.49094e-06
-1.20664e-05
-5.93944e-06
-9.38344e-06
-6.82258e-06
-6.58803e-06
-6.97872e-06
-3.98204e-06
-6.32644e-06
-1.86467e-06
-4.90776e-06
-4.84553e-07
-2.92563e-06
-8.01134e-07
-7.51009e-07
1.77429e-06
-2.59794e-06
4.99823e-06
-5.18438e-06
7.46479e-06
-8.1909e-06
9.00938e-06
-1.13312e-05
9.63018e-06
-1.43522e-05
9.39349e-06
-1.70326e-05
8.39354e-06
-1.91828e-05
6.73576e-06
-2.06455e-05
4.53551e-06
-2.12999e-05
1.92696e-06
-2.10696e-05
-9.24298e-07
-1.99336e-05
-3.81154e-06
-1.79396e-05
-6.48494e-06
-1.52166e-05
-8.66244e-06
-1.19822e-05
-1.0057e-05
-8.53867e-06
-1.04223e-05
-5.25172e-06
-9.6134e-06
-2.50973e-06
-7.64976e-06
-6.68916e-07
-4.76644e-06
-1.47005e-06
-9.19348e-07
2.69364e-06
-3.14708e-06
7.22596e-06
-6.22303e-06
1.05407e-05
-9.75446e-06
1.25408e-05
-1.34088e-05
1.32845e-05
-1.69057e-05
1.28904e-05
-2.00081e-05
1.1496e-05
-2.25157e-05
9.2433e-06
-2.42604e-05
6.28022e-06
-2.51079e-05
2.7745e-06
-2.49637e-05
-1.06855e-06
-2.37846e-05
-4.99063e-06
-2.1596e-05
-8.67349e-06
-1.85115e-05
-1.17469e-05
-1.47506e-05
-1.38179e-05
-1.06467e-05
-1.45262e-05
-6.63489e-06
-1.36252e-05
-3.21131e-06
-1.10733e-05
-8.65894e-07
-7.11185e-06
-2.33595e-06
-1.07663e-06
3.77026e-06
-3.66151e-06
9.81084e-06
-7.1957e-06
1.40749e-05
-1.12157e-05
1.65608e-05
-1.53462e-05
1.7415e-05
-1.92854e-05
1.68295e-05
-2.27879e-05
1.49985e-05
-2.56498e-05
1.21053e-05
-2.76986e-05
8.329e-06
-2.87887e-05
3.86457e-06
-2.88049e-05
-1.05234e-06
-2.76739e-05
-6.12164e-06
-2.53845e-05
-1.09629e-05
-2.20161e-05
-1.51153e-05
-1.77711e-05
-1.80629e-05
-1.30009e-05
-1.92964e-05
-8.21032e-06
-1.84158e-05
-4.02271e-06
-1.52609e-05
-1.0964e-06
-1.00382e-05
-3.43234e-06
-1.22567e-06
4.99593e-06
-4.1452e-06
1.27304e-05
-8.10132e-06
1.8031e-05
-1.25614e-05
2.10209e-05
-1.71124e-05
2.1966e-05
-2.14392e-05
2.11563e-05
-2.52977e-05
1.8857e-05
-2.84909e-05
1.52985e-05
-3.08503e-05
1.06884e-05
-3.2225e-05
5.2393e-06
-3.24804e-05
-7.97005e-07
-3.15068e-05
-7.09518e-06
-2.92426e-05
-1.32272e-05
-2.57105e-05
-1.86473e-05
-2.1068e-05
-2.27054e-05
-1.56589e-05
-2.47055e-05
-1.00466e-05
-2.40281e-05
-4.9969e-06
-2.03107e-05
-1.38203e-06
-1.3653e-05
-4.81437e-06
-1.36904e-06
6.36497e-06
-4.60138e-06
1.59627e-05
-8.93468e-06
2.23643e-05
-1.37662e-05
2.58524e-05
-1.86511e-05
2.6851e-05
-2.32721e-05
2.57772e-05
-2.74003e-05
2.29852e-05
-3.08599e-05
1.87581e-05
-3.35001e-05
1.33286e-05
-3.5176e-05
6.91521e-06
-3.574e-05
-2.32932e-07
-3.50461e-05
-7.78909e-06
-3.29706e-05
-1.53027e-05
-2.94551e-05
-2.21628e-05
-2.45746e-05
-2.7586e-05
-1.8622e-05
-3.06581e-05
-1.21873e-05
-3.04627e-05
-6.18163e-06
-2.63164e-05
-1.7452e-06
-1.80895e-05
-6.55957e-06
-1.51199e-06
7.87696e-06
-5.03858e-06
1.94893e-05
-9.6934e-06
2.70192e-05
-1.47982e-05
3.09573e-05
-1.98847e-05
3.19375e-05
-2.4649e-05
3.05415e-05
-2.88964e-05
2.72326e-05
-3.24922e-05
2.23539e-05
-3.53227e-05
1.61591e-05
-3.72671e-05
8.85956e-06
-3.81797e-05
6.7964e-07
-3.78858e-05
-8.083e-06
-3.61959e-05
-1.69926e-05
-3.29485e-05
-2.54102e-05
-2.80908e-05
-3.24437e-05
-2.18009e-05
-3.69479e-05
-1.46319e-05
-3.76317e-05
-7.61464e-06
-3.33337e-05
-2.21039e-06
-2.34937e-05
-8.76996e-06
-1.66761e-06
9.54456e-06
-5.48057e-06
2.33023e-05
-1.03888e-05
3.19274e-05
-1.56285e-05
3.6197e-05
-2.07208e-05
3.70297e-05
-2.53987e-05
3.52194e-05
-2.95279e-05
3.13618e-05
-3.30404e-05
2.58664e-05
-3.58847e-05
1.90034e-05
-3.79885e-05
1.09634e-05
-3.92321e-05
1.92323e-06
-3.94319e-05
-7.88326e-06
-3.83415e-05
-1.80829e-05
-3.5684e-05
-2.80677e-05
-3.1234e-05
-3.68938e-05
-2.4972e-05
-4.32099e-05
-1.73083e-05
-4.52954e-05
-9.31582e-06
-4.13261e-05
-2.80628e-06
-3.00033e-05
-1.15762e-05
-1.86523e-06
1.14098e-05
-5.98035e-06
2.74174e-05
-1.10577e-05
3.70047e-05
-1.62363e-05
4.13756e-05
-2.10523e-05
4.18456e-05
-2.5312e-05
3.94792e-05
-2.89766e-05
3.50263e-05
-3.20761e-05
2.89659e-05
-3.46501e-05
2.15774e-05
-3.67039e-05
1.30173e-05
-3.81744e-05
3.39375e-06
-3.89014e-05
-7.15632e-06
-3.86089e-05
-1.83754e-05
-3.6913e-05
-2.97636e-05
-3.33856e-05
-4.04211e-05
-2.7719e-05
-4.88766e-05
-2.00294e-05
-5.29851e-05
-1.12719e-05
-5.00836e-05
-3.56878e-06
-3.77064e-05
-1.5145e-05
-2.16409e-06
1.35739e-05
-6.63624e-06
3.18895e-05
-1.17668e-05
4.21353e-05
-1.65987e-05
4.62075e-05
-2.0736e-05
4.5983e-05
-2.41168e-05
4.286e-05
-2.68444e-05
3.77539e-05
-2.90814e-05
3.12029e-05
-3.09859e-05
2.34819e-05
-3.26678e-05
1.46992e-05
-3.41532e-05
4.87919e-06
-3.53462e-05
-5.96336e-06
-3.59884e-05
-1.77332e-05
-3.56293e-05
-3.01226e-05
-3.36435e-05
-4.2407e-05
-2.93636e-05
-5.31565e-05
-2.24283e-05
-5.99204e-05
-1.34057e-05
-5.91061e-05
-4.54389e-06
-4.65682e-05
-1.96889e-05
-2.67476e-06
1.62486e-05
-7.60276e-06
3.68175e-05
-1.25886e-05
4.71212e-05
-1.66319e-05
5.02507e-05
-1.95153e-05
4.88664e-05
-2.13993e-05
4.47439e-05
-2.25864e-05
3.8941e-05
-2.34035e-05
3.202e-05
-2.41442e-05
2.42226e-05
-2.50377e-05
1.55926e-05
-2.62215e-05
6.06302e-06
-2.77037e-05
-4.48113e-06
-2.93053e-05
-1.61316e-05
-3.05872e-05
-2.88407e-05
-3.07924e-05
-4.22018e-05
-2.88857e-05
-5.50632e-05
-2.38591e-05
-6.4947e-05
-1.55129e-05
-6.74523e-05
-5.78447e-06
-5.62966e-05
-2.54734e-05
-3.58611e-06
1.98347e-05
-9.06517e-06
4.22966e-05
-1.34883e-05
5.15443e-05
-1.60151e-05
5.27775e-05
-1.68198e-05
4.96711e-05
-1.64119e-05
4.43361e-05
-1.53501e-05
3.78792e-05
-1.41371e-05
3.08071e-05
-1.31943e-05
2.32798e-05
-1.28553e-05
1.52536e-05
-1.33667e-05
6.57444e-06
-1.48616e-05
-2.9863e-06
-1.72999e-05
-1.36933e-05
-2.03627e-05
-2.57778e-05
-2.33052e-05
-3.92593e-05
-2.48378e-05
-5.35306e-05
-2.32424e-05
-6.65425e-05
-1.71228e-05
-7.35719e-05
-7.31458e-06
-6.61049e-05
-3.2788e-05
-5.16178e-06
2.49965e-05
-1.10654e-05
4.82002e-05
-1.39689e-05
5.44479e-05
-1.37498e-05
5.25584e-05
-1.13271e-05
4.72484e-05
-7.69228e-06
4.07012e-05
-3.67265e-06
3.38596e-05
9.28782e-08
2.70415e-05
3.12077e-06
2.02519e-05
5.02384e-06
1.33505e-05
5.49214e-06
6.10614e-06
4.28513e-06
-1.77928e-06
1.27216e-06
-1.06804e-05
-3.45832e-06
-2.10473e-05
-9.38727e-06
-3.33304e-05
-1.52555e-05
-4.76624e-05
-1.88192e-05
-6.29787e-05
-1.71953e-05
-7.51958e-05
-8.98003e-06
-7.43201e-05
-4.1768e-05
-7.56387e-06
3.25604e-05
-1.28279e-05
5.34643e-05
-1.21048e-05
5.37247e-05
-7.18722e-06
4.76409e-05
-1.43946e-07
4.02051e-05
7.55921e-06
3.29981e-05
1.49596e-05
2.64592e-05
2.14355e-05
2.05656e-05
2.65642e-05
1.51232e-05
3.00253e-05
9.88951e-06
3.15313e-05
4.60016e-06
3.07973e-05
-1.04536e-06
2.75457e-05
-7.42877e-06
2.15712e-05
-1.50728e-05
1.29422e-05
-2.47013e-05
2.43348e-06
-3.71537e-05
-7.77845e-06
-5.27668e-05
-1.35444e-05
-6.94298e-05
-1.00444e-05
-7.78201e-05
-5.18124e-05
-1.00504e-05
4.26108e-05
-1.06149e-05
5.40288e-05
-2.21047e-06
4.53202e-05
9.8164e-06
3.5614e-05
2.24237e-05
2.75979e-05
3.41923e-05
2.12294e-05
4.44602e-05
1.61913e-05
5.29199e-05
1.21059e-05
5.9413e-05
8.63012e-06
6.38142e-05
5.48828e-06
6.5965e-05
2.44937e-06
6.56314e-05
-7.11719e-07
6.24722e-05
-4.26956e-06
5.60293e-05
-8.62995e-06
4.58024e-05
-1.44744e-05
3.15837e-05
-2.2935e-05
1.43933e-05
-3.55763e-05
-1.72876e-06
-5.33078e-05
-8.32656e-06
-7.12223e-05
-6.0139e-05
-5.91616e-06
4.85269e-05
9.06884e-06
3.90438e-05
2.99506e-05
2.44385e-05
4.93274e-05
1.62372e-05
6.56923e-05
1.1233e-05
7.90335e-05
7.88822e-06
8.96396e-05
5.5852e-06
9.78183e-05
3.92721e-06
0.000103804
2.64399e-06
0.00010773
1.56255e-06
0.000109613
5.66999e-07
0.000109342
-4.41572e-07
0.000106636
-1.56293e-06
0.000100969
-2.96333e-06
9.14541e-05
-4.95942e-06
7.67652e-05
-8.2461e-06
5.55485e-05
-1.43597e-05
2.84048e-05
-2.61641e-05
3.36114e-06
-4.61786e-05
-5.67778e-05
4.85269e-05
8.75708e-05
0.000112009
0.000128246
0.000139479
0.000147368
0.000152953
0.00015688
0.000159524
0.000161087
0.000161654
0.000161212
0.000159649
0.000156686
0.000151726
0.00014348
0.000129121
0.000102956
5.67778e-05
)
;

boundaryField
{
    movingWall
    {
        type            calculated;
        value           uniform 0;
    }
    fixedWalls
    {
        type            calculated;
        value           uniform 0;
    }
    frontAndBack
    {
        type            empty;
        value           nonuniform List<scalar> 0();
    }
}


// ************************************************************************* //
