/*--------------------------------*- C++ -*----------------------------------*\
  =========                 |
  \\      /  F ield         | OpenFOAM: The Open Source CFD Toolbox
   \\    /   O peration     | Website:  https://openfoam.org
    \\  /    A nd           | Version:  8
     \\/     M anipulation  |
\*---------------------------------------------------------------------------*/
FoamFile
{
    version     2.0;
    format      ascii;
    class       volScalarField;
    location    "0.5";
    object      p;
}
// * * * * * * * * * * * * * * * * * * * * * * * * * * * * * * * * * * * * * //

dimensions      [0 2 -2 0 0 0 0];

internalField   nonuniform List<scalar> 
400
(
-1.64907e-06
-0.00933442
-0.0206694
-0.029278
-0.0324517
-0.0290028
-0.0188353
-0.0026112
0.0184753
0.042834
0.068576
0.0936161
0.115812
0.133156
0.144035
0.14753
0.14378
0.134325
0.122414
0.113127
0.00924758
-0.000367862
-0.00923174
-0.0151166
-0.016767
-0.0133615
-0.00477936
0.00851843
0.0256427
0.0453687
0.0662118
0.0865187
0.104592
0.118858
0.128069
0.131545
0.129424
0.122811
0.113449
0.103947
0.0212435
0.00794907
-0.00159995
-0.00696928
-0.00828842
-0.00515047
0.00245008
0.0140863
0.0290154
0.0462237
0.0644663
0.0823319
0.0983458
0.111112
0.119488
0.122781
0.120979
0.114768
0.104576
0.0913651
0.0318773
0.0135903
0.00178905
-0.00429368
-0.00594685
-0.00313459
0.00398591
0.0149357
0.0290188
0.0453251
0.0627295
0.0799249
0.0954998
0.10806
0.116382
0.119604
0.11748
0.110331
0.0975492
0.07912
0.0383599
0.0148969
0.000432953
-0.00671233
-0.00882396
-0.0061833
0.000894197
0.0118552
0.0260121
0.0425089
0.0602805
0.0780519
0.0943886
0.107798
0.116868
0.12047
0.118064
0.109629
0.0936774
0.0695541
0.0386097
0.0100151
-0.00717692
-0.0153989
-0.0178287
-0.0150254
-0.00745091
0.00426191
0.0194161
0.0371831
0.0565215
0.0761419
0.0945249
0.11
0.120874
0.125649
0.123415
0.113781
0.094432
0.0642508
0.0308366
-0.00284875
-0.0226719
-0.0317596
-0.0341559
-0.0306883
-0.0219607
-0.00868473
0.00843145
0.0285811
0.0507361
0.0735709
0.0954441
0.114445
0.128507
0.135647
0.134462
0.124096
0.101315
0.064581
0.0132434
-0.0255488
-0.0477795
-0.0573055
-0.0591003
-0.0542908
-0.0436341
-0.0279166
-0.00784437
0.0158176
0.0420748
0.069579
0.0965609
0.120831
0.139862
0.151047
0.152312
0.142138
0.116111
0.0721556
-0.0161882
-0.0601809
-0.0844553
-0.0937355
-0.0940978
-0.0870514
-0.0735378
-0.0544156
-0.0303582
-0.00204107
0.0296318
0.0633451
0.0972393
0.128844
0.155102
0.172621
0.178413
0.169972
0.141212
0.0892292
-0.0598813
-0.109249
-0.134971
-0.142931
-0.140642
-0.130148
-0.112633
-0.0890233
-0.0599106
-0.0258001
0.0125949
0.0541001
0.0968635
0.138191
0.174469
0.201363
0.214661
0.210384
0.17998
0.119132
-0.12092
-0.175895
-0.202011
-0.206905
-0.200115
-0.184471
-0.161481
-0.132127
-0.09684
-0.0558363
-0.00948754
0.0413443
0.0949929
0.148691
0.198332
0.238531
0.263512
0.267154
0.237205
0.166851
-0.203538
-0.264281
-0.288807
-0.287695
-0.273519
-0.250257
-0.219826
-0.183219
-0.140583
-0.0916738
-0.0363147
0.0251877
0.091629
0.160453
0.227279
0.285709
0.32811
0.345389
0.319767
0.239955
-0.314153
-0.380257
-0.399294
-0.387144
-0.361044
-0.32656
-0.28604
-0.240352
-0.18915
-0.131488
-0.0663707
0.00676262
0.0875531
0.174107
0.262234
0.344849
0.412386
0.451913
0.437613
0.350211
-0.463653
-0.532518
-0.538194
-0.506407
-0.461362
-0.410525
-0.356463
-0.299569
-0.238641
-0.171685
-0.0965591
-0.0114616
0.0845697
0.190936
0.304435
0.418107
0.520928
0.595587
0.60524
0.516719
-0.672333
-0.734424
-0.710636
-0.644789
-0.570403
-0.496376
-0.424677
-0.354456
-0.283016
-0.206839
-0.122244
-0.0257869
0.0853232
0.212563
0.354889
0.507034
0.658095
0.787037
0.843656
0.771849
-0.979094
-1.00608
-0.920791
-0.797821
-0.679768
-0.574439
-0.48115
-0.396272
-0.314586
-0.230399
-0.138079
-0.0321883
0.0923639
0.239952
0.413203
0.611079
0.826193
1.03707
1.18156
1.17006
-1.45858
-1.37524
-1.16946
-0.956007
-0.776483
-0.631712
-0.514499
-0.415696
-0.32599
-0.236765
-0.14009
-0.0283244
0.106241
0.271634
0.475928
0.72593
1.02329
1.35332
1.6547
1.80224
-2.28487
-1.87547
-1.43909
-1.0945
-0.837674
-0.65002
-0.511853
-0.404451
-0.31255
-0.224087
-0.128871
-0.0172526
0.120963
0.297851
0.528705
0.83266
1.22825
1.72337
2.30822
2.86426
-3.93108
-2.52018
-1.61698
-1.1124
-0.79308
-0.584388
-0.44649
-0.348429
-0.268918
-0.193543
-0.111219
-0.0117456
0.116031
0.286768
0.522394
0.857002
1.33734
2.03797
3.16929
4.8453
-6.81431
-3.14878
-1.48036
-0.861118
-0.560166
-0.39315
-0.299439
-0.241151
-0.195838
-0.150478
-0.0960239
-0.0245797
0.0729616
0.209264
0.40623
0.705634
1.18727
2.05507
4.01642
7.97787
)
;

boundaryField
{
    movingWall
    {
        type            zeroGradient;
    }
    fixedWalls
    {
        type            zeroGradient;
    }
    frontAndBack
    {
        type            empty;
    }
}


// ************************************************************************* //
