/*--------------------------------*- C++ -*----------------------------------*\
  =========                 |
  \\      /  F ield         | OpenFOAM: The Open Source CFD Toolbox
   \\    /   O peration     | Website:  https://openfoam.org
    \\  /    A nd           | Version:  8
     \\/     M anipulation  |
\*---------------------------------------------------------------------------*/
FoamFile
{
    version     2.0;
    format      ascii;
    class       surfaceScalarField;
    location    "0.5";
    object      phi;
}
// * * * * * * * * * * * * * * * * * * * * * * * * * * * * * * * * * * * * * //

dimensions      [0 3 -1 0 0 0 0];

internalField   nonuniform List<scalar> 
760
(
2.22563e-08
-2.22425e-08
-3.69097e-08
5.91659e-08
-1.84333e-07
1.47424e-07
-3.93365e-07
2.09031e-07
-6.32719e-07
2.39355e-07
-8.73182e-07
2.40462e-07
-1.08969e-06
2.16508e-07
-1.26198e-06
1.7229e-07
-1.37467e-06
1.12688e-07
-1.41738e-06
4.27072e-08
-1.38514e-06
-3.22335e-08
-1.2791e-06
-1.06047e-07
-1.1072e-06
-1.71895e-07
-8.84818e-07
-2.22383e-07
-6.3473e-07
-2.50088e-07
-3.86212e-07
-2.48517e-07
-1.72643e-07
-2.1357e-07
-2.71793e-08
-1.45463e-07
2.59421e-08
-5.31216e-08
2.59419e-08
-5.60485e-08
3.3806e-08
-2.91479e-07
2.94596e-07
-6.97387e-07
5.53332e-07
-1.22435e-06
7.3599e-07
-1.80988e-06
8.2489e-07
-2.39118e-06
8.21764e-07
-2.9116e-06
7.36925e-07
-3.32388e-06
5.84568e-07
-3.59177e-06
3.80576e-07
-3.69114e-06
1.42076e-07
-3.61117e-06
-1.12203e-07
-3.35568e-06
-3.61529e-07
-2.94438e-06
-5.832e-07
-2.41336e-06
-7.53401e-07
-1.81433e-06
-8.49118e-07
-1.21149e-06
-8.51362e-07
-6.75207e-07
-7.49851e-07
-2.71723e-07
-5.48947e-07
-4.73037e-08
-2.77541e-07
-2.13618e-08
-1.49549e-07
1.83355e-07
-5.75198e-07
7.20245e-07
-1.22715e-06
1.20528e-06
-2.03083e-06
1.53967e-06
-2.90083e-06
1.6949e-06
-3.75231e-06
1.67324e-06
-4.5083e-06
1.49292e-06
-5.10413e-06
1.1804e-06
-5.49e-06
7.66442e-07
-5.63282e-06
2.8489e-07
-5.5179e-06
-2.27115e-07
-5.15072e-06
-7.28717e-07
-4.55826e-06
-1.17566e-06
-3.78964e-06
-1.52202e-06
-2.91476e-06
-1.72399e-06
-2.0202e-06
-1.74593e-06
-1.20118e-06
-1.56888e-06
-5.49378e-07
-1.20075e-06
-1.36982e-07
-6.89938e-07
-1.58343e-07
-2.34851e-07
4.18205e-07
-8.45151e-07
1.33054e-06
-1.73374e-06
2.09387e-06
-2.79482e-06
2.60074e-06
-3.92019e-06
2.82027e-06
-5.00713e-06
2.76018e-06
-5.96425e-06
2.45003e-06
-6.71534e-06
1.93149e-06
-7.20185e-06
1.25295e-06
-7.38469e-06
4.67726e-07
-7.24605e-06
-3.65748e-07
-6.79136e-06
-1.18341e-06
-6.05104e-06
-1.91598e-06
-5.08155e-06
-2.49152e-06
-3.96461e-06
-2.84093e-06
-2.80348e-06
-2.90706e-06
-1.71517e-06
-2.65719e-06
-8.18525e-07
-2.09739e-06
-2.19694e-07
-1.28877e-06
-3.78037e-07
-3.12379e-07
7.30583e-07
-1.09913e-06
2.11729e-06
-2.21603e-06
3.21077e-06
-3.52297e-06
3.90768e-06
-4.88789e-06
4.1852e-06
-6.19171e-06
4.064e-06
-7.33182e-06
3.59014e-06
-8.22422e-06
2.82389e-06
-8.80476e-06
1.83349e-06
-9.03018e-06
6.93147e-07
-8.87958e-06
-5.1635e-07
-8.35643e-06
-1.70656e-06
-7.49102e-06
-2.78138e-06
-6.34268e-06
-3.63986e-06
-5.00062e-06
-4.18299e-06
-3.58203e-06
-4.32565e-06
-2.22592e-06
-4.0133e-06
-1.08224e-06
-3.24107e-06
-2.97337e-07
-2.07367e-06
-6.75374e-07
-3.85707e-07
1.11629e-06
-1.34339e-06
3.07498e-06
-2.68262e-06
4.54999e-06
-4.22738e-06
5.45245e-06
-5.82105e-06
5.77887e-06
-7.32923e-06
5.57217e-06
-8.64055e-06
4.90147e-06
-9.66624e-06
3.84958e-06
-1.03391e-05
2.50637e-06
-1.06132e-05
9.67223e-07
-1.04642e-05
-6.65331e-07
-9.89166e-06
-2.27911e-06
-8.92209e-06
-3.75096e-06
-7.61322e-06
-4.94872e-06
-6.05764e-06
-5.73858e-06
-4.38413e-06
-5.99916e-06
-2.75451e-06
-5.64291e-06
-1.35414e-06
-4.64144e-06
-3.75967e-07
-3.05185e-06
-1.05134e-06
-4.58368e-07
1.57466e-06
-1.58539e-06
4.202e-06
-3.14305e-06
6.10766e-06
-4.91789e-06
7.22729e-06
-6.72855e-06
7.58953e-06
-8.42703e-06
7.27064e-06
-9.89625e-06
6.37069e-06
-1.10461e-05
4.99943e-06
-1.18094e-05
3.26969e-06
-1.21392e-05
1.29702e-06
-1.20079e-05
-7.96674e-07
-1.14088e-05
-2.87818e-06
-1.03608e-05
-4.79896e-06
-8.91464e-06
-6.39488e-06
-7.16081e-06
-7.4924e-06
-5.23586e-06
-7.92411e-06
-3.324e-06
-7.55477e-06
-1.65019e-06
-6.31524e-06
-4.62152e-07
-4.23989e-06
-1.51349e-06
-5.33468e-07
2.10813e-06
-1.83184e-06
5.50038e-06
-3.60466e-06
7.88048e-06
-5.59841e-06
9.22104e-06
-7.60753e-06
9.59865e-06
-9.47352e-06
9.13663e-06
-1.10782e-05
7.97538e-06
-1.23351e-05
6.25633e-06
-1.31814e-05
4.11597e-06
-1.35719e-05
1.68753e-06
-1.34763e-05
-8.92254e-07
-1.28801e-05
-3.47435e-06
-1.17899e-05
-5.88924e-06
-1.02425e-05
-7.94228e-06
-8.31829e-06
-9.41659e-06
-6.1545e-06
-1.00879e-05
-3.95442e-06
-9.75485e-06
-1.98594e-06
-8.28372e-06
-5.62389e-07
-5.66345e-06
-2.07588e-06
-6.14032e-07
2.72216e-06
-2.08886e-06
6.9752e-06
-4.0719e-06
9.86352e-06
-6.26537e-06
1.14145e-05
-8.44098e-06
1.17743e-05
-1.04351e-05
1.11308e-05
-1.21357e-05
9.67592e-06
-1.34671e-05
7.58778e-06
-1.43773e-05
5.02611e-06
-1.48273e-05
2.13754e-06
-1.47862e-05
-9.33367e-07
-1.42303e-05
-4.0302e-06
-1.31491e-05
-6.97046e-06
-1.15571e-05
-9.5343e-06
-9.51288e-06
-1.14608e-05
-7.14228e-06
-1.24585e-05
-4.65932e-06
-1.22378e-05
-2.37547e-06
-1.05676e-05
-6.8323e-07
-7.35569e-06
-2.75911e-06
-7.04048e-07
3.42621e-06
-2.36358e-06
8.63473e-06
-4.54728e-06
1.20472e-05
-6.90704e-06
1.37743e-05
-9.19534e-06
1.40626e-05
-1.12523e-05
1.31877e-05
-1.29827e-05
1.14063e-05
-1.43324e-05
8.9375e-06
-1.52687e-05
5.9624e-06
-1.57657e-05
2.63447e-06
-1.57953e-05
-9.03747e-07
-1.53251e-05
-4.50039e-06
-1.43229e-05
-7.97263e-06
-1.27711e-05
-1.10861e-05
-1.06912e-05
-1.35407e-05
-8.17884e-06
-1.49709e-05
-5.44226e-06
-1.49744e-05
-2.83114e-06
-1.31787e-05
-8.32e-07
-9.35482e-06
-3.59111e-06
-8.10357e-07
4.23656e-06
-2.66703e-06
1.04914e-05
-5.03289e-06
1.44131e-05
-7.50235e-06
1.62437e-05
-9.81645e-06
1.63767e-05
-1.18337e-05
1.5205e-05
-1.34912e-05
1.30639e-05
-1.47704e-05
1.02166e-05
-1.5669e-05
6.86102e-06
-1.61826e-05
3.14813e-06
-1.62922e-05
-7.94154e-07
-1.59587e-05
-4.83394e-06
-1.51257e-05
-8.80559e-06
-1.37337e-05
-1.24781e-05
-1.17489e-05
-1.55255e-05
-9.21015e-06
-1.75096e-05
-6.29145e-06
-1.78931e-05
-3.3633e-06
-1.61068e-05
-1.0181e-06
-1.17e-05
-4.60922e-06
-9.45781e-07
5.18234e-06
-3.01782e-06
1.25634e-05
-5.53059e-06
1.69258e-05
-8.01599e-06
1.87291e-05
-1.02206e-05
1.85813e-05
-1.20447e-05
1.70291e-05
-1.34797e-05
1.44988e-05
-1.45588e-05
1.12958e-05
-1.53236e-05
7.62577e-06
-1.58004e-05
3.62497e-06
-1.59865e-05
-6.08089e-07
-1.58412e-05
-4.97917e-06
-1.52854e-05
-9.36145e-06
-1.42109e-05
-1.35526e-05
-1.25099e-05
-1.72265e-05
-1.01313e-05
-1.98882e-05
-7.17015e-06
-2.08542e-05
-3.97901e-06
-1.9298e-05
-1.25519e-06
-1.44238e-05
-5.86441e-06
-1.13421e-06
6.31656e-06
-3.44536e-06
1.48746e-05
-6.03663e-06
1.95171e-05
-8.38401e-06
2.10765e-05
-1.02748e-05
2.04721e-05
-1.16874e-05
1.84417e-05
-1.2695e-05
1.55064e-05
-1.34011e-05
1.20019e-05
-1.39015e-05
8.12623e-06
-1.42618e-05
3.98523e-06
-1.45026e-05
-3.67246e-07
-1.45901e-05
-4.89175e-06
-1.44286e-05
-9.52292e-06
-1.3863e-05
-1.41182e-05
-1.26988e-05
-1.83908e-05
-1.0759e-05
-2.18279e-05
-7.99798e-06
-2.36153e-05
-4.67714e-06
-2.26188e-05
-1.56448e-06
-1.75365e-05
-7.42889e-06
-1.41823e-06
7.73479e-06
-3.98798e-06
1.74443e-05
-6.52037e-06
2.20495e-05
-8.47726e-06
2.30334e-05
-9.7545e-06
2.17493e-05
-1.04615e-05
1.91487e-05
-1.07834e-05
1.58282e-05
-1.09072e-05
1.21257e-05
-1.09874e-05
8.20637e-06
-1.11298e-05
4.12763e-06
-1.13832e-05
-1.13855e-07
-1.17296e-05
-4.5453e-06
-1.20721e-05
-9.18047e-06
-1.22227e-05
-1.39675e-05
-1.19041e-05
-1.87094e-05
-1.07879e-05
-2.29442e-05
-8.61409e-06
-2.5789e-05
-5.43332e-06
-2.57996e-05
-1.9785e-06
-2.09913e-05
-9.40738e-06
-1.86637e-06
9.60116e-06
-4.66971e-06
2.02477e-05
-6.86174e-06
2.42415e-05
-8.01804e-06
2.41897e-05
-8.26168e-06
2.1993e-05
-7.89766e-06
1.87847e-05
-7.2448e-06
1.51754e-05
-6.57072e-06
1.14517e-05
-6.07602e-06
7.71167e-06
-5.89619e-06
3.94781e-06
-6.1045e-06
9.44531e-08
-6.70717e-06
-3.94263e-06
-7.62749e-06
-8.26014e-06
-8.67855e-06
-1.29164e-05
-9.5333e-06
-1.78547e-05
-9.71974e-06
-2.27577e-05
-8.70305e-06
-2.68057e-05
-6.15493e-06
-2.83477e-05
-2.53789e-06
-2.46084e-05
-1.19453e-05
-2.55886e-06
1.216e-05
-5.40344e-06
2.30923e-05
-6.68898e-06
2.55271e-05
-6.40644e-06
2.39072e-05
-5.07879e-06
2.06653e-05
-3.25553e-06
1.69615e-05
-1.37446e-06
1.32943e-05
2.53905e-07
9.82329e-06
1.42141e-06
6.54416e-06
1.99264e-06
3.37658e-06
1.88548e-06
2.01606e-07
1.0672e-06
-3.12434e-06
-4.3103e-07
-6.76192e-06
-2.47525e-06
-1.08722e-05
-4.76454e-06
-1.55654e-05
-6.75682e-06
-2.07654e-05
-7.64802e-06
-2.59145e-05
-6.55594e-06
-2.94398e-05
-3.25093e-06
-2.79134e-05
-1.51962e-05
-3.48356e-06
1.56436e-05
-5.68327e-06
2.5292e-05
-4.99888e-06
2.48427e-05
-2.39466e-06
2.13029e-05
1.05434e-06
1.72163e-05
4.6008e-06
1.3415e-05
7.78616e-06
1.01089e-05
1.03491e-05
7.26034e-06
1.21437e-05
4.74954e-06
1.30821e-05
2.43822e-06
1.31009e-05
1.82841e-07
1.21483e-05
-2.17181e-06
1.01914e-05
-4.80494e-06
7.25212e-06
-7.933e-06
3.49065e-06
-1.18039e-05
-6.5091e-07
-1.66239e-05
-4.26136e-06
-2.23041e-05
-5.8591e-06
-2.78421e-05
-3.94348e-06
-2.9829e-05
-1.91397e-05
-4.15632e-06
1.97999e-05
-3.74315e-06
2.48788e-05
6.42042e-07
2.04575e-05
6.44169e-06
1.55033e-05
1.22041e-05
1.1454e-05
1.72817e-05
8.33735e-06
2.14229e-05
5.9677e-06
2.45579e-05
4.12536e-06
2.66848e-05
2.62269e-06
2.78097e-05
1.31326e-06
2.79166e-05
7.60041e-08
2.69523e-05
-1.20754e-06
2.48215e-05
-2.67421e-06
2.14012e-05
-4.51265e-06
1.65966e-05
-6.99937e-06
1.0494e-05
-1.05212e-05
3.68779e-06
-1.54979e-05
-2.14722e-06
-2.2007e-05
-3.85872e-06
-2.81175e-05
-2.29984e-05
-1.54361e-06
2.13435e-05
5.89971e-06
1.74355e-05
1.55982e-05
1.0759e-05
2.42791e-05
6.82235e-06
3.12786e-05
4.45444e-06
3.6668e-05
2.94803e-06
4.06753e-05
1.96037e-06
4.35208e-05
1.27981e-06
4.53698e-05
7.73732e-07
4.63228e-05
3.60279e-07
4.64143e-05
-1.55233e-08
4.56095e-05
-4.02749e-07
4.379e-05
-8.54711e-07
4.07339e-05
-1.45652e-06
3.60934e-05
-2.35884e-06
2.94179e-05
-3.84577e-06
2.03669e-05
-6.44684e-06
9.45871e-06
-1.10989e-05
1.3106e-07
-1.87898e-05
-2.28673e-05
2.13435e-05
3.8779e-05
4.9538e-05
5.63604e-05
6.08148e-05
6.37628e-05
6.57232e-05
6.7003e-05
6.77767e-05
6.8137e-05
6.81215e-05
6.77188e-05
6.6864e-05
6.54075e-05
6.30487e-05
5.92029e-05
5.27561e-05
4.16572e-05
2.28673e-05
)
;

boundaryField
{
    movingWall
    {
        type            calculated;
        value           uniform 0;
    }
    fixedWalls
    {
        type            calculated;
        value           uniform 0;
    }
    frontAndBack
    {
        type            empty;
        value           nonuniform List<scalar> 0();
    }
}


// ************************************************************************* //
