/*--------------------------------*- C++ -*----------------------------------*\
  =========                 |
  \\      /  F ield         | OpenFOAM: The Open Source CFD Toolbox
   \\    /   O peration     | Website:  https://openfoam.org
    \\  /    A nd           | Version:  8
     \\/     M anipulation  |
\*---------------------------------------------------------------------------*/
FoamFile
{
    version     2.0;
    format      ascii;
    class       volVectorField;
    location    "0.1";
    object      U;
}
// * * * * * * * * * * * * * * * * * * * * * * * * * * * * * * * * * * * * * //

dimensions      [0 1 -1 0 0 0 0];

internalField   nonuniform List<vector> 
400
(
(0.00113149 -0.00118861 0)
(0.000382533 0.000624587 0)
(-0.00625319 0.00277455 0)
(-0.0173871 0.00420659 0)
(-0.031147 0.00491452 0)
(-0.0457942 0.00502699 0)
(-0.0598707 0.00465725 0)
(-0.072134 0.00388056 0)
(-0.0815092 0.00274554 0)
(-0.0870744 0.00130183 0)
(-0.0881166 -0.000368814 0)
(-0.0842459 -0.0021297 0)
(-0.0755394 -0.00378165 0)
(-0.0626705 -0.00507714 0)
(-0.0469719 -0.00575635 0)
(-0.0303828 -0.00560267 0)
(-0.0152406 -0.00450932 0)
(-0.00390399 -0.00254767 0)
(0.00178843 -0.00011028 0)
(0.00152388 0.00147265 0)
(-0.000640916 -0.000473514 0)
(-0.0087041 0.00851995 0)
(-0.0290637 0.0177984 0)
(-0.0583699 0.0241788 0)
(-0.0927906 0.0273351 0)
(-0.128763 0.0275608 0)
(-0.162984 0.0252415 0)
(-0.192503 0.0207164 0)
(-0.21476 0.0142901 0)
(-0.227634 0.00632116 0)
(-0.229594 -0.0026713 0)
(-0.219919 -0.0119332 0)
(-0.198964 -0.0204656 0)
(-0.168373 -0.0271021 0)
(-0.131146 -0.030679 0)
(-0.091484 -0.0302862 0)
(-0.0543 -0.025565 0)
(-0.0244018 -0.0169984 0)
(-0.00564083 -0.00632989 0)
(0.000277924 0.00197766 0)
(-0.00297578 0.00629069 0)
(-0.0194054 0.0292877 0)
(-0.0536533 0.0503235 0)
(-0.099456 0.0646876 0)
(-0.151338 0.0715758 0)
(-0.204574 0.0713942 0)
(-0.254687 0.0648783 0)
(-0.297606 0.0528046 0)
(-0.329793 0.0359844 0)
(-0.348342 0.0154198 0)
(-0.351186 -0.00750335 0)
(-0.337377 -0.0308839 0)
(-0.307408 -0.0523102 0)
(-0.263467 -0.0690463 0)
(-0.209543 -0.0784181 0)
(-0.151237 -0.0783794 0)
(-0.0951518 -0.0681785 0)
(-0.0478699 -0.0489836 0)
(-0.0152643 -0.0245161 0)
(-0.00165905 -0.00264075 0)
(-0.00508413 0.0188891 0)
(-0.0294846 0.0620134 0)
(-0.0771021 0.0979867 0)
(-0.138356 0.121761 0)
(-0.206027 0.132525 0)
(-0.274443 0.130988 0)
(-0.338316 0.118346 0)
(-0.392845 0.095917 0)
(-0.433845 0.0651482 0)
(-0.457859 0.0278532 0)
(-0.462369 -0.0135048 0)
(-0.446114 -0.0556211 0)
(-0.409456 -0.0943595 0)
(-0.354714 -0.125046 0)
(-0.286376 -0.143084 0)
(-0.211006 -0.14488 0)
(-0.136654 -0.128951 0)
(-0.0717647 -0.0969497 0)
(-0.0247622 -0.0544743 0)
(-0.00340247 -0.0124009 0)
(-0.00691781 0.0366416 0)
(-0.0386388 0.105754 0)
(-0.0988105 0.159472 0)
(-0.174534 0.19359 0)
(-0.256825 0.207991 0)
(-0.33918 0.204061 0)
(-0.415719 0.18364 0)
(-0.481167 0.148677 0)
(-0.530915 0.101306 0)
(-0.561074 0.0441823 0)
(-0.568661 -0.019116 0)
(-0.551922 -0.0838101 0)
(-0.510759 -0.143894 0)
(-0.447191 -0.192484 0)
(-0.365769 -0.222636 0)
(-0.273722 -0.228631 0)
(-0.180534 -0.207617 0)
(-0.096868 -0.161165 0)
(-0.0343963 -0.0963821 0)
(-0.00501069 -0.0270119 0)
(-0.00853869 0.0590332 0)
(-0.046928 0.159719 0)
(-0.1187 0.233957 0)
(-0.207837 0.279334 0)
(-0.303679 0.297152 0)
(-0.399 0.28993 0)
(-0.487513 0.260398 0)
(-0.563672 0.211226 0)
(-0.622617 0.14522 0)
(-0.660114 0.0658001 0)
(-0.672666 -0.022447 0)
(-0.657824 -0.113345 0)
(-0.614664 -0.198987 0)
(-0.544429 -0.27005 0)
(-0.451232 -0.316718 0)
(-0.342609 -0.330337 0)
(-0.22943 -0.305681 0)
(-0.124998 -0.243319 0)
(-0.0450944 -0.151354 0)
(-0.00673201 -0.0466432 0)
(-0.00998954 0.0856045 0)
(-0.0544141 0.223039 0)
(-0.136729 0.32042 0)
(-0.238045 0.377941 0)
(-0.346177 0.399037 0)
(-0.453325 0.387857 0)
(-0.552993 0.348298 0)
(-0.639584 0.283834 0)
(-0.708174 0.197874 0)
(-0.754301 0.0944235 0)
(-0.773954 -0.0211704 0)
(-0.763818 -0.141573 0)
(-0.721795 -0.257099 0)
(-0.647813 -0.355843 0)
(-0.544905 -0.424572 0)
(-0.420319 -0.450648 0)
(-0.28603 -0.425046 0)
(-0.158265 -0.34589 0)
(-0.0579813 -0.221445 0)
(-0.00885596 -0.0720688 0)
(-0.0112916 0.115933 0)
(-0.0611151 0.294774 0)
(-0.152782 0.417615 0)
(-0.264738 0.488011 0)
(-0.383439 0.512249 0)
(-0.500707 0.496651 0)
(-0.610082 0.446579 0)
(-0.706188 0.366398 0)
(-0.784302 0.260009 0)
(-0.839943 0.131731 0)
(-0.868694 -0.0127136 0)
(-0.866333 -0.165255 0)
(-0.829309 -0.314769 0)
(-0.755687 -0.446832 0)
(-0.646604 -0.544336 0)
(-0.508072 -0.589488 0)
(-0.35241 -0.567556 0)
(-0.198702 -0.472016 0)
(-0.0742549 -0.309725 0)
(-0.0117015 -0.104721 0)
(-0.0124649 0.149605 0)
(-0.0670566 0.373914 0)
(-0.166735 0.524046 0)
(-0.28737 0.607669 0)
(-0.414205 0.634723 0)
(-0.538922 0.614302 0)
(-0.655416 0.553584 0)
(-0.758892 0.45792 0)
(-0.845196 0.331578 0)
(-0.910182 0.178858 0)
(-0.949321 0.00535511 0)
(-0.957634 -0.18075 0)
(-0.930038 -0.367517 0)
(-0.862273 -0.538413 0)
(-0.752651 -0.672318 0)
(-0.604593 -0.74518 0)
(-0.429311 -0.734235 0)
(-0.247944 -0.625057 0)
(-0.09515 -0.42019 0)
(-0.015641 -0.146721 0)
(-0.0135737 0.186245 0)
(-0.072411 0.459418 0)
(-0.178674 0.637914 0)
(-0.305518 0.734387 0)
(-0.437079 0.763394 0)
(-0.565211 0.737526 0)
(-0.684583 0.666195 0)
(-0.791443 0.555869 0)
(-0.882705 0.411065 0)
(-0.955071 0.235716 0)
(-1.00441 0.0347152 0)
(-1.02543 -0.184446 0)
(-1.01174 -0.409961 0)
(-0.956577 -0.624097 0)
(-0.854552 -0.80218 0)
(-0.704824 -0.913247 0)
(-0.515181 -0.924026 0)
(-0.306801 -0.807716 0)
(-0.121928 -0.55747 0)
(-0.0211509 -0.200926 0)
(-0.0148044 0.225655 0)
(-0.0777307 0.550379 0)
(-0.189239 0.757142 0)
(-0.31925 0.864805 0)
(-0.450887 0.893861 0)
(-0.576629 0.861307 0)
(-0.692487 0.779277 0)
(-0.796341 0.655528 0)
(-0.886777 0.494748 0)
(-0.962004 0.300191 0)
(-1.01902 0.0754675 0)
(-1.05297 -0.173513 0)
(-1.05682 -0.436328 0)
(-1.02159 -0.695545 0)
(-0.93773 -0.924296 0)
(-0.798407 -1.08506 0)
(-0.60487 -1.13206 0)
(-0.374593 -1.0206 0)
(-0.155833 -0.726259 0)
(-0.0288911 -0.271022 0)
(-0.0166004 0.268142 0)
(-0.0843005 0.646375 0)
(-0.200062 0.879458 0)
(-0.329519 0.994558 0)
(-0.454974 1.02004 0)
(-0.570299 0.978451 0)
(-0.673651 0.885183 0)
(-0.765265 0.749452 0)
(-0.846078 0.576063 0)
(-0.916525 0.367363 0)
(-0.975574 0.125206 0)
(-1.01985 -0.146938 0)
(-1.0428 -0.44143 0)
(-1.03422 -0.743188 0)
(-0.980682 -1.02562 0)
(-0.868187 -1.24665 0)
(-0.68794 -1.34752 0)
(-0.448032 -1.26004 0)
(-0.19792 -0.930277 0)
(-0.0398161 -0.361681 0)
(-0.0198996 0.315143 0)
(-0.0946486 0.748011 0)
(-0.214215 1.00243 0)
(-0.3383 1.11794 0)
(-0.44905 1.13368 0)
(-0.543119 1.07914 0)
(-0.621983 0.97338 0)
(-0.689091 0.827132 0)
(-0.748393 0.645238 0)
(-0.80319 0.428994 0)
(-0.855209 0.178221 0)
(-0.903638 -0.106658 0)
(-0.943905 -0.422068 0)
(-0.966303 -0.757585 0)
(-0.955044 -1.09043 0)
(-0.889081 -1.37811 0)
(-0.746696 -1.55144 0)
(-0.519464 -1.515 0)
(-0.248564 -1.17037 0)
(-0.055296 -0.478753 0)
(-0.0265467 0.370346 0)
(-0.113219 0.857537 0)
(-0.236319 1.12313 0)
(-0.347822 1.22706 0)
(-0.431723 1.22358 0)
(-0.489974 1.15038 0)
(-0.529046 1.03023 0)
(-0.556534 0.875056 0)
(-0.579903 0.689469 0)
(-0.60565 0.473607 0)
(-0.638705 0.225245 0)
(-0.681632 -0.0584062 0)
(-0.733309 -0.378582 0)
(-0.786833 -0.731527 0)
(-0.826916 -1.10232 0)
(-0.827781 -1.45443 0)
(-0.754147 -1.71512 0)
(-0.574201 -1.76323 0)
(-0.306155 -1.44109 0)
(-0.0771014 -0.629219 0)
(-0.03991 0.441535 0)
(-0.146912 0.979055 0)
(-0.271219 1.23658 0)
(-0.357123 1.30999 0)
(-0.395712 1.27414 0)
(-0.398504 1.17534 0)
(-0.379052 1.03908 0)
(-0.349844 0.87739 0)
(-0.321889 0.693981 0)
(-0.304607 0.487634 0)
(-0.305865 0.254299 0)
(-0.331705 -0.0116069 0)
(-0.385331 -0.315942 0)
(-0.464854 -0.662509 0)
(-0.559402 -1.04768 0)
(-0.643535 -1.44849 0)
(-0.67202 -1.80047 0)
(-0.586394 -1.96743 0)
(-0.363755 -1.72511 0)
(-0.106633 -0.820259 0)
(-0.0652452 0.543658 0)
(-0.203766 1.11682 0)
(-0.317633 1.33145 0)
(-0.351531 1.34684 0)
(-0.315655 1.26309 0)
(-0.237099 1.13282 0)
(-0.138082 0.981123 0)
(-0.0356947 0.817854 0)
(0.0565526 0.644528 0)
(0.127624 0.458199 0)
(0.168005 0.253342 0)
(0.169179 0.0225678 0)
(0.123958 -0.243238 0)
(0.0280867 -0.554423 0)
(-0.115788 -0.919772 0)
(-0.289929 -1.33638 0)
(-0.448763 -1.76355 0)
(-0.512582 -2.07313 0)
(-0.401385 -1.9863 0)
(-0.141485 -1.05813 0)
(-0.107328 0.705008 0)
(-0.283222 1.26672 0)
(-0.34599 1.37664 0)
(-0.274761 1.30003 0)
(-0.121202 1.157 0)
(0.0680775 0.996709 0)
(0.264312 0.837455 0)
(0.448986 0.68324 0)
(0.609217 0.531684 0)
(0.735126 0.377722 0)
(0.817961 0.2149 0)
(0.8489 0.0354178 0)
(0.818583 -0.170711 0)
(0.717439 -0.417076 0)
(0.538078 -0.72189 0)
(0.283139 -1.10389 0)
(-0.0171874 -1.56068 0)
(-0.28241 -2.00808 0)
(-0.371795 -2.15959 0)
(-0.165143 -1.34641 0)
(-0.153069 0.968024 0)
(-0.33489 1.3849 0)
(-0.232588 1.29073 0)
(0.0347569 1.09971 0)
(0.351872 0.909574 0)
(0.66664 0.741146 0)
(0.956474 0.596694 0)
(1.20978 0.471336 0)
(1.41999 0.35816 0)
(1.58238 0.250408 0)
(1.69203 0.141722 0)
(1.74248 0.0255302 0)
(1.725 -0.106245 0)
(1.62758 -0.265573 0)
(1.43464 -0.472349 0)
(1.13035 -0.758722 0)
(0.711503 -1.16391 0)
(0.217856 -1.68667 0)
(-0.17416 -2.12263 0)
(-0.118078 -1.64422 0)
(-0.0453274 1.25371 0)
(-0.068182 1.30095 0)
(0.410084 0.956877 0)
(0.95018 0.699714 0)
(1.41494 0.520949 0)
(1.8023 0.391186 0)
(2.12248 0.294939 0)
(2.38199 0.220917 0)
(2.58574 0.16036 0)
(2.73689 0.106923 0)
(2.83605 0.0559148 0)
(2.88091 0.00335982 0)
(2.86585 -0.055006 0)
(2.7805 -0.12579 0)
(2.60723 -0.22141 0)
(2.31746 -0.368472 0)
(1.86702 -0.622259 0)
(1.19978 -1.06413 0)
(0.441187 -1.66257 0)
(0.211779 -1.67391 0)
(1.41871 0.697531 0)
(1.81192 0.618011 0)
(2.53066 0.392521 0)
(3.09697 0.247658 0)
(3.4656 0.161303 0)
(3.71826 0.107196 0)
(3.90204 0.0722946 0)
(4.03726 0.0489398 0)
(4.13486 0.0321691 0)
(4.2013 0.018886 0)
(4.23967 0.00716206 0)
(4.25049 -0.0043261 0)
(4.23193 -0.0166817 0)
(4.17928 -0.0316042 0)
(4.08276 -0.0523022 0)
(3.92139 -0.0867466 0)
(3.64632 -0.156472 0)
(3.12495 -0.312435 0)
(2.26286 -0.614376 0)
(1.64207 -0.768315 0)
)
;

boundaryField
{
    movingWall
    {
        type            fixedValue;
        value           uniform (5 0 0);
    }
    fixedWalls
    {
        type            noSlip;
    }
    frontAndBack
    {
        type            empty;
    }
}


// ************************************************************************* //
