/*--------------------------------*- C++ -*----------------------------------*\
  =========                 |
  \\      /  F ield         | OpenFOAM: The Open Source CFD Toolbox
   \\    /   O peration     | Website:  https://openfoam.org
    \\  /    A nd           | Version:  8
     \\/     M anipulation  |
\*---------------------------------------------------------------------------*/
FoamFile
{
    version     2.0;
    format      ascii;
    class       surfaceScalarField;
    location    "0.5";
    object      phi;
}
// * * * * * * * * * * * * * * * * * * * * * * * * * * * * * * * * * * * * * //

dimensions      [0 3 -1 0 0 0 0];

internalField   nonuniform List<scalar> 
760
(
3.23989e-08
-3.24293e-08
-5.77587e-08
9.01577e-08
-2.78942e-07
2.21184e-07
-5.90603e-07
3.11661e-07
-9.4656e-07
3.55956e-07
-1.30439e-06
3.57829e-07
-1.62783e-06
3.2344e-07
-1.88718e-06
2.59355e-07
-2.05919e-06
1.72004e-07
-2.12727e-06
6.808e-08
-2.08252e-06
-4.47447e-08
-1.92526e-06
-1.57267e-07
-1.66663e-06
-2.58625e-07
-1.32989e-06
-3.36747e-07
-9.50399e-07
-3.79488e-07
-5.73922e-07
-3.76476e-07
-2.52226e-07
-3.21695e-07
-3.56601e-08
-2.16566e-07
4.07548e-08
-7.64167e-08
4.0753e-08
-8.6443e-08
5.40133e-08
-4.42338e-07
4.46052e-07
-1.05122e-06
8.30069e-07
-1.83825e-06
1.09869e-06
-2.71115e-06
1.22886e-06
-3.57823e-06
1.22491e-06
-4.35685e-06
1.10206e-06
-4.97733e-06
8.79829e-07
-5.38486e-06
5.79534e-07
-5.54138e-06
2.24599e-07
-5.42798e-06
-1.58135e-07
-5.04791e-06
-5.37342e-07
-4.42929e-06
-8.77248e-07
-3.62664e-06
-1.1394e-06
-2.71968e-06
-1.28645e-06
-1.80803e-06
-1.28813e-06
-1.00037e-06
-1.12935e-06
-3.97359e-07
-8.19576e-07
-6.66001e-08
-4.07175e-07
-2.58487e-08
-2.28003e-07
2.82016e-07
-8.70202e-07
1.08825e-06
-1.84784e-06
1.8077e-06
-3.04857e-06
2.29942e-06
-4.34652e-06
2.52681e-06
-5.61778e-06
2.49617e-06
-6.74988e-06
2.23416e-06
-7.6472e-06
1.77715e-06
-8.23438e-06
1.16671e-06
-8.45929e-06
4.49518e-07
-8.29646e-06
-3.20973e-07
-7.7507e-06
-1.0831e-06
-6.86054e-06
-1.76741e-06
-5.6998e-06
-2.30014e-06
-4.37591e-06
-2.61035e-06
-3.02293e-06
-2.6411e-06
-1.7881e-06
-2.36418e-06
-8.1136e-07
-1.79631e-06
-1.9948e-07
-1.01905e-06
-2.25329e-07
-3.57074e-07
6.3909e-07
-1.27628e-06
2.00745e-06
-2.60707e-06
3.13849e-06
-4.19104e-06
3.88339e-06
-5.8694e-06
4.20517e-06
-7.49259e-06
4.11935e-06
-8.92721e-06
3.66878e-06
-1.00605e-05
2.91046e-06
-1.08037e-05
1.90984e-06
-1.10947e-05
7.40544e-07
-1.09023e-05
-5.13349e-07
-1.02301e-05
-1.75532e-06
-9.12054e-06
-2.87695e-06
-7.65784e-06
-3.76284e-06
-5.96716e-06
-4.30103e-06
-4.20857e-06
-4.3997e-06
-2.56375e-06
-4.00901e-06
-1.21545e-06
-3.14461e-06
-3.2266e-07
-1.91184e-06
-5.47987e-07
-4.73688e-07
1.11278e-06
-1.65531e-06
3.18908e-06
-3.32372e-06
4.80689e-06
-5.2707e-06
5.83037e-06
-7.30373e-06
6.2382e-06
-9.2504e-06
6.06603e-06
-1.09615e-05
5.37985e-06
-1.23126e-05
4.26164e-06
-1.3206e-05
2.80323e-06
-1.35722e-05
1.10672e-06
-1.33735e-05
-7.12079e-07
-1.26085e-05
-2.52031e-06
-1.13176e-05
-4.16784e-06
-9.58782e-06
-5.49263e-06
-7.5551e-06
-6.33374e-06
-5.40149e-06
-6.55331e-06
-3.34427e-06
-6.06623e-06
-1.61622e-06
-4.87267e-06
-4.39455e-07
-3.08861e-06
-9.87441e-07
-5.82321e-07
1.6951e-06
-2.01416e-06
4.62092e-06
-4.00643e-06
6.79916e-06
-6.30008e-06
8.12403e-06
-8.66879e-06
8.6069e-06
-1.09195e-05
8.31671e-06
-1.2891e-05
7.35135e-06
-1.44518e-05
5.82249e-06
-1.54987e-05
3.85007e-06
-1.59561e-05
1.56418e-06
-1.5779e-05
-8.89184e-07
-1.49571e-05
-3.34224e-06
-1.35221e-05
-5.60286e-06
-1.1556e-05
-7.45867e-06
-9.19873e-06
-8.69102e-06
-6.65056e-06
-9.10148e-06
-4.16629e-06
-8.55049e-06
-2.03704e-06
-7.00192e-06
-5.59902e-07
-4.56574e-06
-1.54734e-06
-6.87235e-07
2.38233e-06
-2.36112e-06
6.2948e-06
-4.6649e-06
9.10294e-06
-7.28813e-06
1.07473e-05
-9.97157e-06
1.12903e-05
-1.25046e-05
1.08497e-05
-1.47186e-05
9.56536e-06
-1.64799e-05
7.58384e-06
-1.76839e-05
5.05401e-06
-1.82512e-05
2.13154e-06
-1.81287e-05
-1.01176e-06
-1.7293e-05
-4.17787e-06
-1.57603e-05
-7.13558e-06
-1.35983e-05
-9.62064e-06
-1.09412e-05
-1.13481e-05
-8.00101e-06
-1.20417e-05
-5.06983e-06
-1.14817e-05
-2.50532e-06
-9.56644e-06
-6.95077e-07
-6.37598e-06
-2.24242e-06
-7.91984e-07
3.17432e-06
-2.70337e-06
8.20619e-06
-5.30571e-06
1.17053e-05
-8.23549e-06
1.3677e-05
-1.12025e-05
1.42573e-05
-1.39832e-05
1.36305e-05
-1.64085e-05
1.19906e-05
-1.83492e-05
9.52459e-06
-1.97053e-05
6.41014e-06
-2.03978e-05
2.82397e-06
-2.03657e-05
-1.04379e-06
-1.95701e-05
-4.97357e-06
-1.80033e-05
-8.70232e-06
-1.57074e-05
-1.19165e-05
-1.27969e-05
-1.42587e-05
-9.48304e-06
-1.53555e-05
-6.08981e-06
-1.48749e-05
-3.04802e-06
-1.26082e-05
-8.5613e-07
-8.56787e-06
-3.09855e-06
-8.99999e-07
4.07431e-06
-3.04744e-06
1.03536e-05
-5.93205e-06
1.45899e-05
-9.13342e-06
1.68784e-05
-1.23333e-05
1.74572e-05
-1.53031e-05
1.66003e-05
-1.78826e-05
1.45701e-05
-1.99577e-05
1.15997e-05
-2.14419e-05
7.89433e-06
-2.22629e-05
3.64503e-06
-2.2356e-05
-9.507e-07
-2.16645e-05
-5.66505e-06
-2.01504e-05
-1.02165e-05
-1.78157e-05
-1.42513e-05
-1.47357e-05
-1.73387e-05
-1.11e-05
-1.89912e-05
-7.24946e-06
-1.87255e-05
-3.68948e-06
-1.61682e-05
-1.05441e-06
-1.12029e-05
-4.15296e-06
-1.01628e-06
5.0906e-06
-3.40228e-06
1.27396e-05
-6.5464e-06
1.7734e-05
-9.96473e-06
2.02967e-05
-1.33162e-05
2.08086e-05
-1.6379e-05
1.96631e-05
-1.90163e-05
1.72074e-05
-2.11432e-05
1.37266e-05
-2.26997e-05
9.45074e-06
-2.36306e-05
4.57597e-06
-2.38742e-05
-7.07119e-07
-2.33584e-05
-6.18087e-06
-2.20091e-05
-1.15657e-05
-1.97738e-05
-1.64865e-05
-1.66636e-05
-2.04489e-05
-1.28139e-05
-2.28409e-05
-8.5528e-06
-2.29866e-05
-4.45019e-06
-2.02708e-05
-1.30241e-06
-1.43507e-05
-5.45537e-06
-1.15042e-06
6.24102e-06
-3.78434e-06
1.53735e-05
-7.15464e-06
2.11043e-05
-1.0705e-05
2.38471e-05
-1.40815e-05
2.41852e-05
-1.70881e-05
2.26697e-05
-1.96319e-05
1.97513e-05
-2.16762e-05
1.57708e-05
-2.32038e-05
1.09783e-05
-2.41911e-05
5.56331e-06
-2.45904e-05
-3.07824e-07
-2.4321e-05
-6.45024e-06
-2.32724e-05
-1.26144e-05
-2.13247e-05
-1.84342e-05
-1.83964e-05
-2.33771e-05
-1.45245e-05
-2.67129e-05
-9.97351e-06
-2.75376e-05
-5.34482e-06
-2.48995e-05
-1.61553e-06
-1.808e-05
-7.0709e-06
-1.32154e-06
7.56256e-06
-4.22448e-06
1.82765e-05
-7.76925e-06
2.46491e-05
-1.13193e-05
2.73971e-05
-1.45294e-05
2.73953e-05
-1.7259e-05
2.53993e-05
-1.94874e-05
2.19796e-05
-2.12494e-05
1.75329e-05
-2.25902e-05
1.23191e-05
-2.35337e-05
6.50683e-06
-2.4061e-05
2.19524e-07
-2.40956e-05
-6.41569e-06
-2.34973e-05
-1.32127e-05
-2.20744e-05
-1.98571e-05
-1.96268e-05
-2.58246e-05
-1.60393e-05
-3.03004e-05
-1.1436e-05
-3.21409e-05
-6.37782e-06
-2.99577e-05
-2.01486e-06
-2.2443e-05
-9.08576e-06
-1.56638e-06
9.12894e-06
-4.77498e-06
2.14851e-05
-8.40552e-06
2.82796e-05
-1.17466e-05
3.07381e-05
-1.45057e-05
3.01544e-05
-1.6645e-05
2.75386e-05
-1.82531e-05
2.35877e-05
-1.94619e-05
1.87417e-05
-2.03963e-05
1.32536e-05
-2.11429e-05
7.2534e-06
-2.1727e-05
8.03644e-07
-2.20936e-05
-6.04914e-06
-2.20907e-05
-1.32155e-05
-2.14647e-05
-2.04832e-05
-1.98845e-05
-2.74048e-05
-1.70301e-05
-3.31548e-05
-1.27824e-05
-3.63886e-05
-7.5321e-06
-3.5208e-05
-2.53121e-06
-2.74439e-05
-1.1617e-05
-1.95158e-06
1.10805e-05
-5.51058e-06
2.50441e-05
-9.05578e-06
3.18248e-05
-1.18503e-05
3.35326e-05
-1.37426e-05
3.20467e-05
-1.48678e-05
2.86639e-05
-1.54665e-05
2.41864e-05
-1.57888e-05
1.90639e-05
-1.60484e-05
1.35131e-05
-1.64002e-05
7.6052e-06
-1.69241e-05
1.32761e-06
-1.76058e-05
-5.36743e-06
-1.83103e-05
-1.2511e-05
-1.87536e-05
-2.00399e-05
-1.84913e-05
-2.76671e-05
-1.69694e-05
-3.46766e-05
-1.37133e-05
-3.96447e-05
-8.7404e-06
-4.01809e-05
-3.20839e-06
-3.29759e-05
-1.48254e-05
-2.58713e-06
1.36676e-05
-6.50074e-06
2.89577e-05
-9.60313e-06
3.49272e-05
-1.12966e-05
3.52261e-05
-1.17309e-05
3.2481e-05
-1.13059e-05
2.82388e-05
-1.0449e-05
2.33295e-05
-9.53041e-06
1.81453e-05
-8.84027e-06
1.2823e-05
-8.58897e-06
7.35391e-06
-8.90736e-06
1.646e-06
-9.83492e-06
-4.43988e-06
-1.12892e-05
-1.10568e-05
-1.30139e-05
-1.83152e-05
-1.45167e-05
-2.61644e-05
-1.50408e-05
-3.41525e-05
-1.36785e-05
-4.1007e-05
-9.8097e-06
-4.40497e-05
-4.09277e-06
-3.86928e-05
-1.89181e-05
-3.61254e-06
1.72802e-05
-7.67702e-06
3.30222e-05
-9.58238e-06
3.68326e-05
-9.28253e-06
3.49262e-05
-7.47522e-06
3.06737e-05
-4.90485e-06
2.56685e-05
-2.17796e-06
2.06026e-05
2.59122e-07
1.57082e-05
2.09006e-06
1.09921e-05
3.09094e-06
6.35303e-06
3.10607e-06
1.63086e-06
2.0443e-06
-3.3781e-06
-9.63961e-08
-8.91609e-06
-3.16473e-06
-1.52469e-05
-6.74456e-06
-2.25845e-05
-1.00138e-05
-3.08833e-05
-1.16749e-05
-3.93459e-05
-1.02283e-05
-4.54963e-05
-5.16048e-06
-4.37606e-05
-2.40786e-05
-5.05761e-06
2.23378e-05
-8.38146e-06
3.6346e-05
-7.58869e-06
3.60398e-05
-3.9942e-06
3.13318e-05
9.12933e-07
2.57666e-05
6.0847e-06
2.04967e-05
1.08574e-05
1.583e-05
1.48307e-05
1.17349e-05
1.77608e-05
8.06194e-06
1.94834e-05
4.63044e-06
1.98672e-05
1.24712e-06
1.87934e-05
-2.30435e-06
1.61638e-05
-6.28647e-06
1.19518e-05
-1.10349e-05
6.33116e-06
-1.69639e-05
-8.30245e-08
-2.44691e-05
-5.9018e-06
-3.35271e-05
-8.74154e-06
-4.26566e-05
-6.07845e-06
-4.64237e-05
-3.01571e-05
-6.29427e-06
2.86321e-05
-6.06095e-06
3.61127e-05
2.88432e-08
2.995e-05
8.32389e-06
2.30367e-05
1.67431e-05
1.73474e-05
2.43354e-05
1.29044e-05
3.06974e-05
9.46801e-06
3.5682e-05
6.75026e-06
3.92449e-05
4.49904e-06
4.13603e-05
2.51503e-06
4.19757e-05
6.31708e-07
4.09867e-05
-1.31535e-06
3.82225e-05
-3.52228e-06
3.34568e-05
-6.26916e-06
2.64805e-05
-9.98754e-06
1.73309e-05
-1.53195e-05
6.82819e-06
-2.30244e-05
-2.47588e-06
-3.33525e-05
-5.61581e-06
-4.32837e-05
-3.57729e-05
-2.85858e-06
3.14907e-05
7.64902e-06
2.56051e-05
2.16957e-05
1.59033e-05
3.44578e-05
1.02746e-05
4.49432e-05
6.86198e-06
5.32023e-05
4.64537e-06
5.95079e-05
3.16236e-06
6.41356e-05
2.12263e-06
6.7296e-05
1.33864e-06
6.9118e-05
6.93013e-07
6.96426e-05
1.07099e-07
6.88161e-05
-4.88857e-07
6.64628e-05
-1.16902e-06
6.22483e-05
-2.05466e-06
5.56276e-05
-3.3668e-06
4.58533e-05
-5.54525e-06
3.22863e-05
-9.45737e-06
1.55792e-05
-1.66453e-05
8.89761e-07
-2.85943e-05
-3.48831e-05
3.14907e-05
5.70958e-05
7.29991e-05
8.32737e-05
9.01357e-05
9.4781e-05
9.79434e-05
0.000100066
0.000101405
0.000102098
0.000102205
0.000101716
0.000100547
9.84922e-05
9.51254e-05
8.95802e-05
8.01228e-05
6.34775e-05
3.48831e-05
)
;

boundaryField
{
    movingWall
    {
        type            calculated;
        value           uniform 0;
    }
    fixedWalls
    {
        type            calculated;
        value           uniform 0;
    }
    frontAndBack
    {
        type            empty;
        value           nonuniform List<scalar> 0();
    }
}


// ************************************************************************* //
