/*--------------------------------*- C++ -*----------------------------------*\
  =========                 |
  \\      /  F ield         | OpenFOAM: The Open Source CFD Toolbox
   \\    /   O peration     | Website:  https://openfoam.org
    \\  /    A nd           | Version:  8
     \\/     M anipulation  |
\*---------------------------------------------------------------------------*/
FoamFile
{
    version     2.0;
    format      ascii;
    class       volScalarField;
    location    "0.5";
    object      p;
}
// * * * * * * * * * * * * * * * * * * * * * * * * * * * * * * * * * * * * * //

dimensions      [0 2 -2 0 0 0 0];

internalField   nonuniform List<scalar> 
400
(
1.22504e-05
-0.0210194
-0.0460516
-0.0648595
-0.0719313
-0.064926
-0.0435775
-0.00898732
0.0367199
0.0904853
0.148337
0.2055
0.256719
0.296832
0.32159
0.328633
0.318472
0.295287
0.267328
0.246578
0.0209146
-0.0008501
-0.0204009
-0.0331804
-0.0368947
-0.0299588
-0.0120452
0.01614
0.0530717
0.0964369
0.14314
0.18941
0.23107
0.264038
0.284985
0.292108
0.285864
0.269304
0.247223
0.226105
0.0474181
0.0173756
-0.00356493
-0.0150668
-0.0180412
-0.0118342
0.00365525
0.0278442
0.0595884
0.0971008
0.137868
0.178683
0.215865
0.245686
0.264971
0.271805
0.266243
0.250379
0.226175
0.196648
0.0698109
0.0287178
0.00303742
-0.00988265
-0.0137121
-0.00864021
0.00514644
0.0270813
0.0562808
0.0913362
0.130107
0.169654
0.206381
0.236412
0.256186
0.263193
0.256832
0.238401
0.207744
0.166051
0.0812062
0.0289374
-0.00226718
-0.0174514
-0.0226665
-0.0187913
-0.00622858
0.0144997
0.042767
0.0775087
0.116883
0.158089
0.197409
0.230535
0.253161
0.261818
0.254986
0.233146
0.194382
0.138907
0.0762584
0.0133352
-0.0234119
-0.0410606
-0.047749
-0.0449017
-0.0330369
-0.0125572
0.0162178
0.0525958
0.0950355
0.140828
0.186018
0.225643
0.254311
0.267185
0.261438
0.236531
0.188813
0.118006
0.0504128
-0.022503
-0.064473
-0.0844212
-0.0923935
-0.090263
-0.0785694
-0.0574984
-0.0269649
0.0128095
0.0606748
0.114073
0.16879
0.21905
0.258046
0.279052
0.277362
0.250918
0.193921
0.105722
-0.000560259
-0.0828016
-0.129453
-0.151239
-0.160073
-0.15825
-0.146263
-0.123975
-0.0907489
-0.0461587
0.00923936
0.0732306
0.141462
0.207305
0.262224
0.296997
0.304202
0.279351
0.213472
0.10525
-0.0808181
-0.171803
-0.222398
-0.245227
-0.254205
-0.252128
-0.239421
-0.215515
-0.179043
-0.128672
-0.064042
0.0133286
0.0992601
0.186411
0.264327
0.320621
0.344033
0.326187
0.253066
0.121807
-0.194594
-0.293923
-0.347395
-0.369883
-0.377729
-0.374453
-0.360463
-0.334668
-0.294761
-0.238176
-0.163203
-0.0701361
0.0375706
0.152291
0.261718
0.349724
0.399858
0.397732
0.321218
0.164026
-0.346465
-0.454023
-0.50859
-0.528158
-0.532455
-0.52617
-0.509821
-0.481723
-0.438398
-0.375674
-0.289964
-0.179656
-0.0466688
0.101905
0.252431
0.384831
0.476113
0.503067
0.430783
0.245887
-0.542098
-0.658041
-0.710302
-0.722036
-0.718229
-0.705471
-0.684566
-0.653138
-0.606265
-0.537758
-0.441592
-0.313474
-0.152759
0.0352389
0.23676
0.428346
0.579584
0.655226
0.600971
0.389714
-0.790124
-0.914273
-0.957287
-0.95196
-0.931871
-0.906474
-0.876933
-0.839939
-0.788734
-0.714656
-0.608684
-0.463089
-0.273548
-0.0420009
0.219669
0.486454
0.720913
0.872868
0.86029
0.631185
-1.10662
-1.23582
-1.25501
-1.2159
-1.16583
-1.11784
-1.07306
-1.02659
-0.969169
-0.889101
-0.773841
-0.611593
-0.393359
-0.115989
0.213226
0.571218
0.916289
1.18232
1.25093
1.02837
-1.52522
-1.64473
-1.60924
-1.50741
-1.40621
-1.32137
-1.25225
-1.19088
-1.12436
-1.03713
-0.912621
-0.734542
-0.488504
-0.164764
0.23704
0.701009
1.18763
1.61847
1.83401
1.67678
-2.1175
-2.17774
-2.02399
-1.81238
-1.63051
-1.49109
-1.38751
-1.3058
-1.22746
-1.13195
-0.998182
-0.805082
-0.532496
-0.162993
0.314401
0.897503
1.55974
2.22194
2.69105
2.72675
-3.03397
-2.89168
-2.49852
-2.10826
-1.80872
-1.59615
-1.45013
-1.34553
-1.25523
-1.15241
-1.01089
-0.804754
-0.507863
-0.0941669
0.460917
1.17642
2.05279
3.03131
3.92271
4.41027
-4.64417
-3.86003
-2.99949
-2.34617
-1.89465
-1.59853
-1.41227
-1.29149
-1.19669
-1.09374
-0.951592
-0.739955
-0.427092
0.0224742
0.650471
1.50644
2.63625
4.04281
5.66558
7.20932
-7.98731
-5.10715
-3.28099
-2.30896
-1.73588
-1.39841
-1.21341
-1.11216
-1.04222
-0.964233
-0.84509
-0.652872
-0.353467
0.0953539
0.751534
1.70182
3.0678
5.02229
8.00984
12.2468
-14.2208
-6.31047
-2.83603
-1.66037
-1.14313
-0.895915
-0.80611
-0.792361
-0.798404
-0.786968
-0.728716
-0.595837
-0.357146
0.0262854
0.613342
1.50975
2.9263
5.35679
10.3271
19.7453
)
;

boundaryField
{
    movingWall
    {
        type            zeroGradient;
    }
    fixedWalls
    {
        type            zeroGradient;
    }
    frontAndBack
    {
        type            empty;
    }
}


// ************************************************************************* //
