/*--------------------------------*- C++ -*----------------------------------*\
  =========                 |
  \\      /  F ield         | OpenFOAM: The Open Source CFD Toolbox
   \\    /   O peration     | Website:  https://openfoam.org
    \\  /    A nd           | Version:  8
     \\/     M anipulation  |
\*---------------------------------------------------------------------------*/
FoamFile
{
    version     2.0;
    format      ascii;
    class       volVectorField;
    location    "0.5";
    object      U;
}
// * * * * * * * * * * * * * * * * * * * * * * * * * * * * * * * * * * * * * //

dimensions      [0 1 -1 0 0 0 0];

internalField   nonuniform List<vector> 
400
(
(0.0008679 -0.000866046 0)
(0.000343285 0.000458692 0)
(-0.0044855 0.0020373 0)
(-0.0126931 0.00311378 0)
(-0.0228709 0.00364618 0)
(-0.0337052 0.00371571 0)
(-0.0440623 0.00340831 0)
(-0.0529899 0.00279283 0)
(-0.0596977 0.0019227 0)
(-0.0635512 0.000850606 0)
(-0.0641005 -0.000354332 0)
(-0.0611398 -0.00159407 0)
(-0.054784 -0.0027374 0)
(-0.0455372 -0.00362692 0)
(-0.0343259 -0.00409764 0)
(-0.0224701 -0.00400662 0)
(-0.0115652 -0.00327165 0)
(-0.00326205 -0.00191577 0)
(0.0010738 -0.000174381 0)
(0.00105479 0.00102408 0)
(-0.000393622 -0.000429186 0)
(-0.00618436 0.00616805 0)
(-0.0210457 0.013042 0)
(-0.042586 0.0178348 0)
(-0.06797 0.0202015 0)
(-0.0944884 0.0203124 0)
(-0.119605 0.0184629 0)
(-0.141085 0.0149586 0)
(-0.157054 0.0100977 0)
(-0.166043 0.0042103 0)
(-0.167065 -0.00228794 0)
(-0.159743 -0.00885679 0)
(-0.144443 -0.0148269 0)
(-0.122389 -0.0194416 0)
(-0.0956903 -0.02195 0)
(-0.0672408 -0.021748 0)
(-0.0404216 -0.0185562 0)
(-0.0185961 -0.0126141 0)
(-0.00459896 -0.00500388 0)
(6.70412e-05 0.00120121 0)
(-0.00208936 0.00440106 0)
(-0.0139471 0.0212268 0)
(-0.0389274 0.0368549 0)
(-0.072552 0.0476376 0)
(-0.110751 0.0527916 0)
(-0.149917 0.0525277 0)
(-0.186623 0.0474194 0)
(-0.217799 0.0381622 0)
(-0.240862 0.025515 0)
(-0.253794 0.0103565 0)
(-0.255261 -0.006224 0)
(-0.244768 -0.0228625 0)
(-0.222824 -0.0379271 0)
(-0.191079 -0.0496241 0)
(-0.152361 -0.0562153 0)
(-0.110548 -0.0563436 0)
(-0.0701819 -0.0494347 0)
(-0.0358328 -0.0361126 0)
(-0.0117583 -0.0186981 0)
(-0.00140225 -0.00249877 0)
(-0.00359993 0.0134242 0)
(-0.0212337 0.0449893 0)
(-0.0559842 0.0717408 0)
(-0.100952 0.0895889 0)
(-0.150748 0.0976274 0)
(-0.20102 0.096248 0)
(-0.247706 0.0863971 0)
(-0.287187 0.0692564 0)
(-0.316413 0.0461623 0)
(-0.332993 0.0186838 0)
(-0.335314 -0.0112491 0)
(-0.322716 -0.0412555 0)
(-0.295689 -0.0685197 0)
(-0.25604 -0.0899629 0)
(-0.206991 -0.102597 0)
(-0.153098 -0.104059 0)
(-0.0998636 -0.0932711 0)
(-0.0530732 -0.0710969 0)
(-0.0187163 -0.0409672 0)
(-0.00271427 -0.0100215 0)
(-0.00491145 0.0261737 0)
(-0.0278736 0.0767899 0)
(-0.0718591 0.116778 0)
(-0.127519 0.1424 0)
(-0.188103 0.153114 0)
(-0.248576 0.149772 0)
(-0.304389 0.133851 0)
(-0.351549 0.107108 0)
(-0.386704 0.0715197 0)
(-0.407185 0.029394 0)
(-0.411108 -0.0164475 0)
(-0.397554 -0.0625374 0)
(-0.366797 -0.104765 0)
(-0.320544 -0.138592 0)
(-0.262142 -0.159518 0)
(-0.196625 -0.163837 0)
(-0.130419 -0.149581 0)
(-0.070708 -0.117478 0)
(-0.0256038 -0.0717444 0)
(-0.00390669 -0.0210949 0)
(-0.00608452 0.0422838 0)
(-0.0339731 0.11612 0)
(-0.0866224 0.171458 0)
(-0.152327 0.205537 0)
(-0.223007 0.218691 0)
(-0.292995 0.212583 0)
(-0.357377 0.189423 0)
(-0.411927 0.151646 0)
(-0.453112 0.101894 0)
(-0.478057 0.0431948 0)
(-0.484594 -0.020777 0)
(-0.471433 -0.0854893 0)
(-0.43842 -0.145499 0)
(-0.386883 -0.194654 0)
(-0.319999 -0.226638 0)
(-0.24307 -0.235923 0)
(-0.163409 -0.219065 0)
(-0.0898159 -0.176073 0)
(-0.0329907 -0.11154 0)
(-0.00514044 -0.0357359 0)
(-0.00716982 0.0614871 0)
(-0.0396544 0.162486 0)
(-0.100397 0.235194 0)
(-0.175438 0.278365 0)
(-0.255428 0.293727 0)
(-0.334159 0.28414 0)
(-0.406483 0.252787 0)
(-0.468095 0.202882 0)
(-0.515419 0.137726 0)
(-0.545458 0.0609812 0)
(-0.555772 -0.0229514 0)
(-0.544601 -0.108599 0)
(-0.511152 -0.189236 0)
(-0.456055 -0.256999 0)
(-0.381947 -0.303423 0)
(-0.29406 -0.320559 0)
(-0.200442 -0.302657 0)
(-0.111657 -0.24815 0)
(-0.0415607 -0.161418 0)
(-0.00659701 -0.0543422 0)
(-0.00820424 0.0835881 0)
(-0.0450147 0.215422 0)
(-0.113264 0.307315 0)
(-0.196779 0.360057 0)
(-0.285011 0.377326 0)
(-0.371342 0.36361 0)
(-0.450567 0.323333 0)
(-0.518504 0.260593 0)
(-0.571725 0.179312 0)
(-0.607263 0.0836398 0)
(-0.622472 -0.0215179 0)
(-0.615087 -0.129988 0)
(-0.583493 -0.233948 0)
(-0.527276 -0.32383 0)
(-0.448043 -0.388735 0)
(-0.350424 -0.417595 0)
(-0.242789 -0.401274 0)
(-0.137445 -0.335358 0)
(-0.0520277 -0.223038 0)
(-0.00846946 -0.0777129 0)
(-0.00922423 0.108446 0)
(-0.0501553 0.27449 0)
(-0.125288 0.387035 0)
(-0.216162 0.449498 0)
(-0.311085 0.468148 0)
(-0.403205 0.449612 0)
(-0.487515 0.399862 0)
(-0.560236 0.323991 0)
(-0.618365 0.226484 0)
(-0.659205 0.111775 0)
(-0.680087 -0.0150393 0)
(-0.678305 -0.147465 0)
(-0.651322 -0.276939 0)
(-0.597348 -0.392402 0)
(-0.516372 -0.48038 0)
(-0.411625 -0.526009 0)
(-0.291007 -0.515414 0)
(-0.168171 -0.439511 0)
(-0.0651163 -0.29861 0)
(-0.0109756 -0.107057 0)
(-0.0102971 0.135993 0)
(-0.0552728 0.339295 0)
(-0.136649 0.473406 0)
(-0.233408 0.545124 0)
(-0.332752 0.56415 0)
(-0.427858 0.539878 0)
(-0.514271 0.48019 0)
(-0.589001 0.391304 0)
(-0.649848 0.278191 0)
(-0.694748 0.145327 0)
(-0.721319 -0.0023967 0)
(-0.726641 -0.158682 0)
(-0.707309 -0.314807 0)
(-0.659929 -0.458724 0)
(-0.582247 -0.57457 0)
(-0.475045 -0.643186 0)
(-0.344446 -0.644464 0)
(-0.204419 -0.562119 0)
(-0.0815718 -0.390741 0)
(-0.0143892 -0.144015 0)
(-0.0115767 0.166331 0)
(-0.0608146 0.409577 0)
(-0.14784 0.565274 0)
(-0.248524 0.64474 0)
(-0.349013 0.662281 0)
(-0.442923 0.630866 0)
(-0.526866 0.560719 0)
(-0.599149 0.459312 0)
(-0.658863 0.332022 0)
(-0.705045 0.183096 0)
(-0.73606 0.0167735 0)
(-0.749186 -0.161479 0)
(-0.740438 -0.343592 0)
(-0.704814 -0.517415 0)
(-0.637314 -0.665386 0)
(-0.535074 -0.764055 0)
(-0.400562 -0.785704 0)
(-0.246056 -0.703622 0)
(-0.102174 -0.502145 0)
(-0.0190929 -0.190719 0)
(-0.0134 0.19995 0)
(-0.0677154 0.485413 0)
(-0.159925 0.661251 0)
(-0.26185 0.745262 0)
(-0.358774 0.7581 0)
(-0.445459 0.71734 0)
(-0.520323 0.636002 0)
(-0.583622 0.522917 0)
(-0.636305 0.383752 0)
(-0.679045 0.22225 0)
(-0.711507 0.041549 0)
(-0.73176 -0.154401 0)
(-0.735803 -0.359173 0)
(-0.717402 -0.561804 0)
(-0.668666 -0.74442 0)
(-0.58201 -0.88016 0)
(-0.453914 -0.932993 0)
(-0.291699 -0.862204 0)
(-0.127718 -0.635153 0)
(-0.0256616 -0.249916 0)
(-0.0164591 0.238167 0)
(-0.0777361 0.5675 0)
(-0.174744 0.759568 0)
(-0.273961 0.842285 0)
(-0.360465 0.845254 0)
(-0.431427 0.791876 0)
(-0.488142 0.698342 0)
(-0.533593 0.574805 0)
(-0.571157 0.427017 0)
(-0.603632 0.257939 0)
(-0.632514 0.0692168 0)
(-0.65733 -0.137336 0)
(-0.674894 -0.357955 0)
(-0.678599 -0.584453 0)
(-0.658182 -0.800787 0)
(-0.60085 -0.978872 0)
(-0.494768 -1.07517 0)
(-0.337756 -1.032 0)
(-0.15888 -0.790776 0)
(-0.0349851 -0.325172 0)
(-0.0220942 0.283899 0)
(-0.0938814 0.657428 0)
(-0.194778 0.857544 0)
(-0.284769 0.929199 0)
(-0.350605 0.914653 0)
(-0.39407 0.844307 0)
(-0.420803 0.737525 0)
(-0.437322 0.605397 0)
(-0.449842 0.453357 0)
(-0.46353 0.283269 0)
(-0.48201 0.09502 0)
(-0.506809 -0.1121 0)
(-0.536486 -0.337783 0)
(-0.56539 -0.578205 0)
(-0.582349 -0.821863 0)
(-0.570124 -1.04317 0)
(-0.507186 -1.19446 0)
(-0.3767 -1.2005 0)
(-0.195669 -0.966917 0)
(-0.0483747 -0.421086 0)
(-0.0327009 0.342895 0)
(-0.120599 0.757471 0)
(-0.221778 0.950074 0)
(-0.290558 0.995495 0)
(-0.319997 0.953271 0)
(-0.320044 0.861214 0)
(-0.302361 0.740929 0)
(-0.27752 0.603389 0)
(-0.254496 0.452946 0)
(-0.240529 0.289977 0)
(-0.241146 0.112521 0)
(-0.259979 -0.0826446 0)
(-0.298036 -0.298896 0)
(-0.352194 -0.537815 0)
(-0.412829 -0.79512 0)
(-0.460959 -1.05272 0)
(-0.466427 -1.26552 0)
(-0.393841 -1.34541 0)
(-0.235621 -1.15504 0)
(-0.067316 -0.543141 0)
(-0.0518179 0.425715 0)
(-0.1623 0.868715 0)
(-0.251433 1.02586 0)
(-0.275937 1.02369 0)
(-0.245097 0.942647 0)
(-0.181603 0.825906 0)
(-0.104092 0.694585 0)
(-0.0266155 0.557444 0)
(0.04021 0.416529 0)
(0.0882739 0.270285 0)
(0.111171 0.115039 0)
(0.1038 -0.0543958 0)
(0.0626403 -0.244418 0)
(-0.0129714 -0.461843 0)
(-0.118001 -0.711143 0)
(-0.236641 -0.986773 0)
(-0.335416 -1.25623 0)
(-0.361371 -1.43132 0)
(-0.268632 -1.33506 0)
(-0.0916217 -0.697501 0)
(-0.0818334 0.551811 0)
(-0.215199 0.983985 0)
(-0.256732 1.05741 0)
(-0.194528 0.982843 0)
(-0.0709123 0.856719 0)
(0.0766056 0.719301 0)
(0.224859 0.585716 0)
(0.359404 0.459419 0)
(0.470819 0.338776 0)
(0.552467 0.220042 0)
(0.598931 0.0983313 0)
(0.605085 -0.0323917 0)
(0.565776 -0.179849 0)
(0.476316 -0.354119 0)
(0.334662 -0.567319 0)
(0.147181 -0.829078 0)
(-0.0601575 -1.13052 0)
(-0.228383 -1.40661 0)
(-0.265468 -1.46679 0)
(-0.112785 -0.891096 0)
(-0.109712 0.74777 0)
(-0.236357 1.06462 0)
(-0.143143 0.981602 0)
(0.0710805 0.821652 0)
(0.31683 0.663869 0)
(0.554122 0.525954 0)
(0.765934 0.409621 0)
(0.94429 0.310693 0)
(1.08547 0.223595 0)
(1.18732 0.143003 0)
(1.24757 0.0639036 0)
(1.26285 -0.0190144 0)
(1.22803 -0.112389 0)
(1.13569 -0.225868 0)
(0.976493 -0.374266 0)
(0.742536 -0.578638 0)
(0.437064 -0.859319 0)
(0.0960186 -1.20369 0)
(-0.154056 -1.46776 0)
(-0.0928598 -1.10737 0)
(-0.0129639 0.938369 0)
(-0.0124663 0.978814 0)
(0.359055 0.715739 0)
(0.770296 0.512898 0)
(1.11672 0.371429 0)
(1.398 0.270268 0)
(1.6233 0.196675 0)
(1.79913 0.141235 0)
(1.93079 0.0969512 0)
(2.02206 0.0589081 0)
(2.0746 0.0234887 0)
(2.08778 -0.012468 0)
(2.05813 -0.0526538 0)
(1.97838 -0.102667 0)
(1.83567 -0.172745 0)
(1.60974 -0.282792 0)
(1.2706 -0.468918 0)
(0.785969 -0.777742 0)
(0.258364 -1.17963 0)
(0.12082 -1.16454 0)
(1.04 0.509988 0)
(1.34349 0.450684 0)
(1.88302 0.28138 0)
(2.29842 0.172815 0)
(2.56149 0.108943 0)
(2.73661 0.0698895 0)
(2.85983 0.0453696 0)
(2.94701 0.0293641 0)
(3.00698 0.0181419 0)
(3.04501 0.00946956 0)
(3.06379 0.00198453 0)
(3.06405 -0.00526511 0)
(3.04465 -0.013267 0)
(3.00205 -0.0234442 0)
(2.92832 -0.0386949 0)
(2.80686 -0.065793 0)
(2.59885 -0.120953 0)
(2.20769 -0.238331 0)
(1.58667 -0.451663 0)
(1.15762 -0.549972 0)
)
;

boundaryField
{
    movingWall
    {
        type            fixedValue;
        value           uniform (3.6 0 0);
    }
    fixedWalls
    {
        type            noSlip;
    }
    frontAndBack
    {
        type            empty;
    }
}


// ************************************************************************* //
