/*--------------------------------*- C++ -*----------------------------------*\
  =========                 |
  \\      /  F ield         | OpenFOAM: The Open Source CFD Toolbox
   \\    /   O peration     | Website:  https://openfoam.org
    \\  /    A nd           | Version:  8
     \\/     M anipulation  |
\*---------------------------------------------------------------------------*/
FoamFile
{
    version     2.0;
    format      ascii;
    class       volScalarField;
    location    "0.4";
    object      p;
}
// * * * * * * * * * * * * * * * * * * * * * * * * * * * * * * * * * * * * * //

dimensions      [0 2 -2 0 0 0 0];

internalField   nonuniform List<scalar> 
400
(
8.40453e-06
-0.0186745
-0.0409864
-0.0577709
-0.0640341
-0.0576442
-0.0383784
-0.00728575
0.0336475
0.0816145
0.133041
0.183703
0.229011
0.264497
0.286493
0.292954
0.284284
0.264061
0.239439
0.220965
0.0185667
-0.000750821
-0.0181793
-0.0295918
-0.0328625
-0.0265417
-0.0103516
0.0150205
0.0481362
0.0868636
0.128412
0.16944
0.206307
0.23548
0.254097
0.260599
0.255361
0.24098
0.221554
0.202731
0.0421887
0.0155177
-0.00317009
-0.0134661
-0.016077
-0.0103804
0.00369509
0.0255643
0.0541181
0.0876825
0.123974
0.160152
0.193012
0.219347
0.236447
0.242669
0.238044
0.224323
0.203057
0.176774
0.062326
0.0258094
0.00285829
-0.00872496
-0.0120724
-0.00730984
0.00536562
0.025361
0.051772
0.083235
0.117778
0.15279
0.185151
0.211552
0.228975
0.235294
0.229977
0.214062
0.187181
0.150165
0.0729675
0.0264488
-0.00148281
-0.0150913
-0.0196006
-0.0157532
-0.00396164
0.0151857
0.0409721
0.0722998
0.107431
0.143861
0.178373
0.207311
0.227055
0.234695
0.228933
0.210091
0.176192
0.127111
0.06948
0.0133546
-0.0195916
-0.0353714
-0.0410491
-0.0378643
-0.0263664
-0.00708634
0.0194763
0.0524981
0.0904602
0.130911
0.170424
0.204803
0.229552
0.240645
0.235718
0.214225
0.172621
0.110235
0.047908
-0.0173281
-0.0550186
-0.0727689
-0.0793435
-0.0764041
-0.0645642
-0.0442246
-0.0155975
0.0208356
0.0638311
0.111018
0.158724
0.202074
0.235415
0.253202
0.251555
0.228675
0.179123
0.10178
0.00452433
-0.0693444
-0.111303
-0.130531
-0.137486
-0.13424
-0.121423
-0.0992209
-0.0674476
-0.0261087
0.0239751
0.0806472
0.140063
0.19661
0.243225
0.272354
0.27795
0.256253
0.199103
0.104675
-0.0644335
-0.146548
-0.192108
-0.211991
-0.218508
-0.214221
-0.199763
-0.175023
-0.139271
-0.0918342
-0.0328625
0.0359639
0.110849
0.185528
0.251348
0.298209
0.317019
0.300914
0.237517
0.123547
-0.162938
-0.253077
-0.301256
-0.320414
-0.325139
-0.318693
-0.301761
-0.273858
-0.233534
-0.179172
-0.109908
-0.0265387
0.0676006
0.165897
0.258118
0.331139
0.371748
0.368313
0.301787
0.16588
-0.295457
-0.393631
-0.442773
-0.458733
-0.459275
-0.448766
-0.428047
-0.396195
-0.350835
-0.289091
-0.208651
-0.108886
0.00795898
0.135531
0.262385
0.372148
0.446392
0.466496
0.402999
0.243617
-0.467665
-0.574066
-0.621022
-0.629204
-0.62127
-0.603334
-0.576543
-0.539433
-0.488458
-0.419117
-0.327169
-0.209912
-0.0676753
0.0944224
0.264622
0.423669
0.547149
0.606861
0.557592
0.375631
-0.688177
-0.802566
-0.840937
-0.832893
-0.808982
-0.777901
-0.741154
-0.696502
-0.638866
-0.561699
-0.458325
-0.323306
-0.154108
0.0466929
0.2686
0.490844
0.683198
0.80546
0.789813
0.591907
-0.972631
-1.09183
-1.10825
-1.06881
-1.01651
-0.963262
-0.910545
-0.854748
-0.788655
-0.703138
-0.588589
-0.436227
-0.239734
0.00235346
0.283055
0.582844
0.867735
1.0845
1.1354
0.941171
-1.35284
-1.46274
-1.42901
-1.332
-1.23225
-1.14402
-1.06725
-0.995601
-0.918676
-0.824026
-0.698609
-0.529826
-0.306837
-0.0227054
0.321816
0.712814
1.11766
1.47278
1.64602
1.50398
-1.89498
-1.94933
-1.80762
-1.61049
-1.43661
-1.29754
-1.18786
-1.09589
-1.0063
-0.902266
-0.766808
-0.58318
-0.33554
-0.0103137
0.400784
0.89525
1.45086
2.00299
2.39083
2.40878
-2.73573
-2.60292
-2.24369
-1.88417
-1.60267
-1.39614
-1.24684
-1.13297
-1.03151
-0.920067
-0.777201
-0.581875
-0.312962
0.0507431
0.529471
1.13907
1.88015
2.70492
3.45513
3.85678
-4.20734
-3.48862
-2.70599
-2.10784
-1.68787
-1.40504
-1.21879
-1.08994
-0.984342
-0.873107
-0.730467
-0.531508
-0.25013
0.14321
0.683888
1.41455
2.375
3.57008
4.95308
6.26852
-7.23876
-4.62804
-2.97387
-2.08631
-1.55547
-1.23508
-1.05001
-0.93895
-0.856169
-0.768156
-0.647318
-0.46737
-0.200127
0.189742
0.751753
1.56099
2.72243
4.3883
6.95953
10.6382
-12.8194
-5.73139
-2.59935
-1.52184
-1.03843
-0.799215
-0.699926
-0.667453
-0.652822
-0.62452
-0.558406
-0.432011
-0.220092
0.109462
0.606613
1.36279
2.55966
4.62943
8.94123
17.2187
)
;

boundaryField
{
    movingWall
    {
        type            zeroGradient;
    }
    fixedWalls
    {
        type            zeroGradient;
    }
    frontAndBack
    {
        type            empty;
    }
}


// ************************************************************************* //
