/*--------------------------------*- C++ -*----------------------------------*\
  =========                 |
  \\      /  F ield         | OpenFOAM: The Open Source CFD Toolbox
   \\    /   O peration     | Website:  https://openfoam.org
    \\  /    A nd           | Version:  8
     \\/     M anipulation  |
\*---------------------------------------------------------------------------*/
FoamFile
{
    version     2.0;
    format      ascii;
    class       volVectorField;
    location    "0.4";
    object      U;
}
// * * * * * * * * * * * * * * * * * * * * * * * * * * * * * * * * * * * * * //

dimensions      [0 1 -1 0 0 0 0];

internalField   nonuniform List<vector> 
400
(
(0.000776122 -0.000773064 0)
(0.000322741 0.000402053 0)
(-0.00396109 0.00181147 0)
(-0.0112682 0.00277722 0)
(-0.0203446 0.00325528 0)
(-0.0300082 0.00331456 0)
(-0.0392337 0.00303209 0)
(-0.0471628 0.00247258 0)
(-0.0530912 0.00168838 0)
(-0.0564651 0.000730763 0)
(-0.0569025 -0.000336445 0)
(-0.0542405 -0.00142668 0)
(-0.0485958 -0.00242708 0)
(-0.0404185 -0.00320375 0)
(-0.0305198 -0.00361623 0)
(-0.0200479 -0.00354116 0)
(-0.0103927 -0.00290415 0)
(-0.00300393 -0.00171811 0)
(0.000896568 -0.000179252 0)
(0.0009235 0.000897765 0)
(-0.000336626 -0.000400716 0)
(-0.00545198 0.00545553 0)
(-0.0186404 0.0115919 0)
(-0.0378025 0.0158875 0)
(-0.0604129 0.01801 0)
(-0.0840362 0.0180982 0)
(-0.106387 0.0164174 0)
(-0.125459 0.0132537 0)
(-0.139584 0.00889216 0)
(-0.147475 0.00364384 0)
(-0.148291 -0.00211274 0)
(-0.141731 -0.00790068 0)
(-0.128148 -0.013141 0)
(-0.108631 -0.0171856 0)
(-0.0850329 -0.0193919 0)
(-0.059881 -0.0192372 0)
(-0.0361281 -0.0164675 0)
(-0.016728 -0.0112659 0)
(-0.00420909 -0.00454519 0)
(2.55323e-05 0.0010077 0)
(-0.00183401 0.0038571 0)
(-0.012322 0.0187983 0)
(-0.0344918 0.0327503 0)
(-0.0643962 0.0424115 0)
(-0.0984062 0.0470319 0)
(-0.133279 0.0467734 0)
(-0.165926 0.0421532 0)
(-0.193596 0.0338214 0)
(-0.213992 0.0224953 0)
(-0.225346 0.0089934 0)
(-0.226517 -0.00569724 0)
(-0.21711 -0.020372 0)
(-0.197614 -0.0336148 0)
(-0.169506 -0.0438836 0)
(-0.135272 -0.0496869 0)
(-0.0983056 -0.0498503 0)
(-0.0625724 -0.043854 0)
(-0.0320794 -0.0321914 0)
(-0.0106075 -0.0168238 0)
(-0.00129433 -0.0023635 0)
(-0.0031662 0.0118216 0)
(-0.0187719 0.0398596 0)
(-0.0496252 0.0637487 0)
(-0.0896291 0.0797433 0)
(-0.13397 0.0869493 0)
(-0.178726 0.0856764 0)
(-0.220238 0.0767815 0)
(-0.255256 0.0613695 0)
(-0.281072 0.0406994 0)
(-0.295592 0.0162276 0)
(-0.297439 -0.0102989 0)
(-0.286089 -0.0367749 0)
(-0.262028 -0.0607523 0)
(-0.226889 -0.0795799 0)
(-0.183515 -0.0906927 0)
(-0.135894 -0.0920505 0)
(-0.0888265 -0.0826895 0)
(-0.0473653 -0.0632866 0)
(-0.0168021 -0.0367233 0)
(-0.00247071 -0.00915146 0)
(-0.00432423 0.0230828 0)
(-0.0246658 0.0680639 0)
(-0.0637585 0.103791 0)
(-0.113318 0.126761 0)
(-0.167301 0.136361 0)
(-0.221154 0.1333 0)
(-0.270768 0.118918 0)
(-0.312557 0.094865 0)
(-0.343541 0.0630017 0)
(-0.36139 0.0254729 0)
(-0.364504 -0.0151635 0)
(-0.352154 -0.0558357 0)
(-0.324663 -0.0929644 0)
(-0.283602 -0.122638 0)
(-0.231945 -0.140999 0)
(-0.174104 -0.144858 0)
(-0.115673 -0.132484 0)
(-0.0628954 -0.104411 0)
(-0.0228961 -0.0641405 0)
(-0.00353594 -0.0190997 0)
(-0.0053668 0.0373294 0)
(-0.0301189 0.102995 0)
(-0.076997 0.152471 0)
(-0.135594 0.183031 0)
(-0.198647 0.194798 0)
(-0.261012 0.189193 0)
(-0.318232 0.168232 0)
(-0.366504 0.134206 0)
(-0.40269 0.0896125 0)
(-0.424288 0.0372772 0)
(-0.429472 -0.0194554 0)
(-0.417214 -0.076559 0)
(-0.387506 -0.129286 0)
(-0.341622 -0.172334 0)
(-0.282424 -0.200297 0)
(-0.214571 -0.208443 0)
(-0.144417 -0.193781 0)
(-0.0795728 -0.156204 0)
(-0.0293717 -0.0994633 0)
(-0.00462827 -0.0321999 0)
(-0.00634455 0.0543504 0)
(-0.0352627 0.14427 0)
(-0.0894967 0.209332 0)
(-0.156578 0.248049 0)
(-0.22806 0.261739 0)
(-0.298282 0.25289 0)
(-0.362553 0.224418 0)
(-0.416987 0.179357 0)
(-0.458411 0.12085 0)
(-0.484234 0.0523395 0)
(-0.492411 -0.0221432 0)
(-0.481543 -0.097715 0)
(-0.451109 -0.168498 0)
(-0.401827 -0.227714 0)
(-0.336136 -0.268131 0)
(-0.258667 -0.282975 0)
(-0.176406 -0.267313 0)
(-0.0984536 -0.219673 0)
(-0.0368047 -0.14354 0)
(-0.00590191 -0.0487676 0)
(-0.00729622 0.074012 0)
(-0.040207 0.191555 0)
(-0.101375 0.273866 0)
(-0.176267 0.321156 0)
(-0.255299 0.336439 0)
(-0.332398 0.323671 0)
(-0.4028 0.286922 0)
(-0.462719 0.230079 0)
(-0.509119 0.156907 0)
(-0.539451 0.0713519 0)
(-0.551518 -0.0220533 0)
(-0.543515 -0.117767 0)
(-0.514252 -0.208929 0)
(-0.463599 -0.28729 0)
(-0.393163 -0.343548 0)
(-0.307106 -0.36831 0)
(-0.212713 -0.353805 0)
(-0.120553 -0.296147 0)
(-0.0457932 -0.197717 0)
(-0.00751921 -0.0694561 0)
(-0.00826021 0.096242 0)
(-0.0450641 0.244561 0)
(-0.112729 0.345482 0)
(-0.194544 0.401444 0)
(-0.279815 0.417761 0)
(-0.36222 0.400333 0)
(-0.437149 0.354675 0)
(-0.501176 0.285643 0)
(-0.55165 0.197587 0)
(-0.58628 0.0947798 0)
(-0.60287 -0.0180063 0)
(-0.59926 -0.134891 0)
(-0.573494 -0.248331 0)
(-0.524299 -0.348771 0)
(-0.451952 -0.424717 0)
(-0.359483 -0.463584 0)
(-0.253828 -0.453645 0)
(-0.146708 -0.387094 0)
(-0.0569423 -0.263802 0)
(-0.00966178 -0.0952621 0)
(-0.009302 0.121045 0)
(-0.0500259 0.303055 0)
(-0.123741 0.423448 0)
(-0.211265 0.487612 0)
(-0.300814 0.503942 0)
(-0.386054 0.480881 0)
(-0.462869 0.425742 0)
(-0.528545 0.344474 0)
(-0.581167 0.241947 0)
(-0.619017 0.122551 0)
(-0.640166 -0.00904967 0)
(-0.642276 -0.147082 0)
(-0.622647 -0.283811 0)
(-0.578642 -0.408788 0)
(-0.508654 -0.508459 0)
(-0.413692 -0.566614 0)
(-0.29927 -0.566314 0)
(-0.177432 -0.49375 0)
(-0.0708777 -0.343937 0)
(-0.0125575 -0.127543 0)
(-0.0105631 0.148586 0)
(-0.0554986 0.366925 0)
(-0.134844 0.506845 0)
(-0.226394 0.577767 0)
(-0.317318 0.592293 0)
(-0.401662 0.562177 0)
(-0.476285 0.496936 0)
(-0.539672 0.403739 0)
(-0.591086 0.287898 0)
(-0.629801 0.153668 0)
(-0.654543 0.00519923 0)
(-0.663124 -0.152404 0)
(-0.652305 -0.311911 0)
(-0.618032 -0.462718 0)
(-0.556337 -0.589763 0)
(-0.465165 -0.673156 0)
(-0.347032 -0.689563 0)
(-0.212684 -0.616493 0)
(-0.0882677 -0.440377 0)
(-0.0165265 -0.168071 0)
(-0.0123469 0.17938 0)
(-0.062307 0.436345 0)
(-0.146928 0.5945 0)
(-0.240097 0.669174 0)
(-0.328125 0.678833 0)
(-0.406116 0.639526 0)
(-0.472619 0.563412 0)
(-0.527928 0.458964 0)
(-0.57301 0.33181 0)
(-0.608606 0.185796 0)
(-0.634563 0.0241273 0)
(-0.649325 -0.149386 0)
(-0.649548 -0.328884 0)
(-0.630008 -0.504705 0)
(-0.584166 -0.661404 0)
(-0.505908 -0.776076 0)
(-0.392752 -0.818303 0)
(-0.251452 -0.753878 0)
(-0.109829 -0.555101 0)
(-0.0220564 -0.219142 0)
(-0.0152709 0.214673 0)
(-0.071986 0.511997 0)
(-0.161487 0.684809 0)
(-0.252587 0.757802 0)
(-0.331387 0.757767 0)
(-0.395256 0.706214 0)
(-0.445451 0.61829 0)
(-0.48481 0.503722 0)
(-0.516533 0.368226 0)
(-0.543255 0.214934 0)
(-0.566398 0.0457084 0)
(-0.585584 -0.137528 0)
(-0.598029 -0.331213 0)
(-0.597988 -0.528001 0)
(-0.576676 -0.713851 0)
(-0.523371 -0.864585 0)
(-0.428501 -0.943208 0)
(-0.290976 -0.901143 0)
(-0.136249 -0.689085 0)
(-0.0299174 -0.28378 0)
(-0.020526 0.25712 0)
(-0.0871314 0.595247 0)
(-0.180444 0.775182 0)
(-0.263248 0.837463 0)
(-0.323251 0.820697 0)
(-0.36217 0.75297 0)
(-0.385346 0.652405 0)
(-0.398912 0.529585 0)
(-0.40866 0.389888 0)
(-0.419325 0.235381 0)
(-0.434145 0.0662745 0)
(-0.454375 -0.11781 0)
(-0.47856 -0.316367 0)
(-0.501524 -0.525784 0)
(-0.513368 -0.735748 0)
(-0.499224 -0.923877 0)
(-0.441025 -1.04921 0)
(-0.325284 -1.04801 0)
(-0.167789 -0.840856 0)
(-0.0412796 -0.365968 0)
(-0.0302265 0.311845 0)
(-0.111523 0.687866 0)
(-0.204819 0.860578 0)
(-0.267883 0.898228 0)
(-0.294419 0.855536 0)
(-0.293789 0.767538 0)
(-0.276943 0.654436 0)
(-0.253747 0.526629 0)
(-0.232467 0.388391 0)
(-0.219635 0.240302 0)
(-0.220084 0.080773 0)
(-0.236794 -0.0929391 0)
(-0.270274 -0.283671 0)
(-0.317283 -0.49255 0)
(-0.368873 -0.715377 0)
(-0.408171 -0.935811 0)
(-0.409201 -1.11443 0)
(-0.342326 -1.17578 0)
(-0.20282 -1.00373 0)
(-0.057559 -0.470641 0)
(-0.0474394 0.388137 0)
(-0.148669 0.790185 0)
(-0.229814 0.930012 0)
(-0.251504 0.923665 0)
(-0.222612 0.845247 0)
(-0.164256 0.734791 0)
(-0.0937579 0.611976 0)
(-0.0240734 0.485014 0)
(0.0351677 0.355902 0)
(0.0767804 0.223294 0)
(0.0952692 0.0838917 0)
(0.0864546 -0.0669692 0)
(0.0477206 -0.23496 0)
(-0.0208468 -0.425928 0)
(-0.113991 -0.643292 0)
(-0.217045 -0.881267 0)
(-0.30039 -1.11046 0)
(-0.318431 -1.25413 0)
(-0.233395 -1.16128 0)
(-0.0789234 -0.603647 0)
(-0.0739853 0.502978 0)
(-0.194262 0.894593 0)
(-0.229935 0.957633 0)
(-0.171497 0.885272 0)
(-0.058085 0.766254 0)
(0.0758536 0.637845 0)
(0.20909 0.514035 0)
(0.32856 0.397979 0)
(0.42595 0.288145 0)
(0.495583 0.181057 0)
(0.532966 0.0721954 0)
(0.533935 -0.0439985 0)
(0.494393 -0.174545 0)
(0.410818 -0.328387 0)
(0.282287 -0.515853 0)
(0.115547 -0.744351 0)
(-0.0654973 -1.00434 0)
(-0.208655 -1.2376 0)
(-0.234868 -1.27962 0)
(-0.0986105 -0.772136 0)
(-0.0973112 0.678808 0)
(-0.208443 0.964749 0)
(-0.119987 0.886231 0)
(0.0763383 0.737369 0)
(0.29918 0.591105 0)
(0.512399 0.463963 0)
(0.700769 0.357424 0)
(0.857439 0.267513 0)
(0.979496 0.18902 0)
(1.06544 0.116997 0)
(1.11365 0.046785 0)
(1.12146 -0.026553 0)
(1.08462 -0.109159 0)
(0.996888 -0.209798 0)
(0.85052 -0.341557 0)
(0.639483 -0.522306 0)
(0.368065 -0.767984 0)
(0.0697321 -1.06497 0)
(-0.143735 -1.28715 0)
(-0.0842101 -0.964462 0)
(-0.00630555 0.84383 0)
(-0.000922304 0.881217 0)
(0.33687 0.642861 0)
(0.708138 0.457552 0)
(1.01862 0.328338 0)
(1.26853 0.236474 0)
(1.46662 0.17013 0)
(1.6193 0.120535 0)
(1.73184 0.0812389 0)
(1.80803 0.0477411 0)
(1.84966 0.0167231 0)
(1.85636 -0.0147403 0)
(1.82514 -0.0500906 0)
(1.74952 -0.0945286 0)
(1.61801 -0.157393 0)
(1.41284 -0.256298 0)
(1.10807 -0.422044 0)
(0.677326 -0.693159 0)
(0.214319 -1.04247 0)
(0.0995763 -1.02405 0)
(0.929366 0.455384 0)
(1.20476 0.402012 0)
(1.69008 0.249564 0)
(2.0609 0.151922 0)
(2.29363 0.0947648 0)
(2.44709 0.0601157 0)
(2.55393 0.0385661 0)
(2.62859 0.0246233 0)
(2.67917 0.0149275 0)
(2.7105 0.00748849 0)
(2.72505 0.00109392 0)
(2.72351 -0.00511503 0)
(2.70484 -0.0120487 0)
(2.66576 -0.0210545 0)
(2.59893 -0.0348619 0)
(2.48922 -0.0597048 0)
(2.30135 -0.110004 0)
(1.94983 -0.21527 0)
(1.39871 -0.40336 0)
(1.02266 -0.487641 0)
)
;

boundaryField
{
    movingWall
    {
        type            fixedValue;
        value           uniform (3.2 0 0);
    }
    fixedWalls
    {
        type            noSlip;
    }
    frontAndBack
    {
        type            empty;
    }
}


// ************************************************************************* //
