/*--------------------------------*- C++ -*----------------------------------*\
  =========                 |
  \\      /  F ield         | OpenFOAM: The Open Source CFD Toolbox
   \\    /   O peration     | Website:  https://openfoam.org
    \\  /    A nd           | Version:  8
     \\/     M anipulation  |
\*---------------------------------------------------------------------------*/
FoamFile
{
    version     2.0;
    format      ascii;
    class       volScalarField;
    location    "0.3";
    object      p;
}
// * * * * * * * * * * * * * * * * * * * * * * * * * * * * * * * * * * * * * //

dimensions      [0 2 -2 0 0 0 0];

internalField   nonuniform List<scalar> 
400
(
-2.49965e-05
-0.0269973
-0.0588391
-0.0827288
-0.0919403
-0.0836443
-0.0574391
-0.0144795
0.0428634
0.110984
0.184949
0.258565
0.324796
0.376601
0.408151
0.416266
0.401801
0.370648
0.334008
0.307622
0.0267487
-0.00119262
-0.0260551
-0.0422755
-0.0472152
-0.0389778
-0.0170864
0.0177717
0.0639399
0.118725
0.178304
0.237795
0.291606
0.334143
0.36081
0.36915
0.359896
0.337387
0.308385
0.281621
0.0604488
0.0219045
-0.0046539
-0.0191766
-0.0231825
-0.0159677
0.00267231
0.032234
0.0715802
0.118726
0.170628
0.22315
0.27133
0.309996
0.334689
0.342743
0.334328
0.312558
0.280658
0.243057
0.0883379
0.0357236
0.00326449
-0.0129933
-0.0181911
-0.0127094
0.003333
0.0295319
0.0651792
0.10887
0.158112
0.209144
0.25708
0.296464
0.322188
0.330677
0.321163
0.295761
0.255157
0.201715
0.101203
0.0345038
-0.00480137
-0.023937
-0.0311792
-0.0277779
-0.0140511
0.00977524
0.0434662
0.0862038
0.136
0.189333
0.241137
0.285267
0.315434
0.326573
0.316542
0.286381
0.234693
0.162934
0.0917804
0.0118861
-0.0342395
-0.0566327
-0.0662923
-0.0651262
-0.0534883
-0.0312886
0.00182595
0.0457202
0.0989787
0.158324
0.218395
0.27206
0.311334
0.328982
0.320832
0.286455
0.222351
0.129768
0.0539093
-0.0380271
-0.0905294
-0.116167
-0.128367
-0.129539
-0.119921
-0.0989422
-0.0654829
-0.0187957
0.040488
0.109513
0.182685
0.251709
0.306397
0.336499
0.33481
0.298559
0.22145
0.104743
-0.0179361
-0.120679
-0.178857
-0.207434
-0.222118
-0.225756
-0.21836
-0.198707
-0.164676
-0.114321
-0.0471056
0.0349442
0.126309
0.217577
0.295925
0.34709
0.359393
0.32614
0.236567
0.091582
-0.128835
-0.241202
-0.304143
-0.335021
-0.351873
-0.358056
-0.353321
-0.335643
-0.301626
-0.247712
-0.171631
-0.0739191
0.0406314
0.161885
0.274208
0.358278
0.396034
0.374333
0.274871
0.0969365
-0.28347
-0.404494
-0.470926
-0.50279
-0.520857
-0.529272
-0.5276
-0.512913
-0.480257
-0.423978
-0.33937
-0.224549
-0.0825431
0.0767054
0.235091
0.367445
0.447103
0.450818
0.347677
0.132459
-0.486323
-0.615451
-0.683267
-0.713331
-0.730215
-0.739435
-0.740584
-0.729781
-0.70024
-0.64371
-0.552263
-0.420496
-0.248252
-0.0437297
0.173677
0.372945
0.51674
0.567014
0.472527
0.217741
-0.742475
-0.879672
-0.94484
-0.967353
-0.977848
-0.984197
-0.986325
-0.979345
-0.954356
-0.900005
-0.80439
-0.65746
-0.454242
-0.199049
0.0897256
0.376636
0.612702
0.739953
0.676155
0.384872
-1.05983
-1.20504
-1.25926
-1.26299
-1.25713
-1.25324
-1.25176
-1.24658
-1.22624
-1.17579
-1.0787
-0.919302
-0.686276
-0.37762
-0.00736236
0.388128
0.74966
0.995265
0.998887
0.685987
-1.4545
-1.60477
-1.63056
-1.59484
-1.55552
-1.52894
-1.51563
-1.50746
-1.48966
-1.44298
-1.34573
-1.17602
-0.915061
-0.55236
-0.0936238
0.429622
0.953358
1.37124
1.50126
1.20636
-1.96323
-2.10279
-2.06297
-1.95199
-1.85278
-1.78549
-1.74859
-1.73004
-1.71027
-1.66481
-1.56627
-1.38625
-1.09805
-0.681243
-0.129518
0.537912
1.26272
1.92148
2.27147
2.08453
-2.66892
-2.74152
-2.55894
-2.31476
-2.1192
-1.98891
-1.91502
-1.87792
-1.85079
-1.80245
-1.69931
-1.50641
-1.18906
-0.71637
-0.0671468
0.759647
1.72659
2.71176
3.4266
3.53158
-3.75415
-3.59083
-3.11703
-2.65519
-2.31822
-2.10172
-1.97973
-1.91877
-1.88102
-1.82699
-1.71627
-1.50747
-1.15777
-0.625374
0.128663
1.13375
2.39079
3.80969
5.11229
5.86202
-5.67856
-4.74636
-3.70114
-2.91799
-2.39719
-2.0805
-1.91094
-1.83148
-1.78869
-1.73356
-1.61925
-1.39876
-1.02134
-0.433559
0.425791
1.62577
3.2285
5.22999
7.53284
9.7219
-9.75205
-6.24046
-4.00611
-2.83478
-2.16719
-1.79987
-1.63135
-1.57511
-1.56123
-1.53387
-1.44332
-1.23993
-0.871373
-0.273118
0.637471
1.97927
3.91877
6.6828
10.8187
16.5591
-17.5841
-7.6694
-3.37146
-1.9697
-1.3806
-1.12483
-1.07315
-1.12493
-1.20486
-1.25939
-1.2434
-1.11214
-0.815861
-0.293111
0.541776
1.83463
3.87554
7.32104
14.073
26.4584
)
;

boundaryField
{
    movingWall
    {
        type            zeroGradient;
    }
    fixedWalls
    {
        type            zeroGradient;
    }
    frontAndBack
    {
        type            empty;
    }
}


// ************************************************************************* //
