/*--------------------------------*- C++ -*----------------------------------*\
  =========                 |
  \\      /  F ield         | OpenFOAM: The Open Source CFD Toolbox
   \\    /   O peration     | Website:  https://openfoam.org
    \\  /    A nd           | Version:  8
     \\/     M anipulation  |
\*---------------------------------------------------------------------------*/
FoamFile
{
    version     2.0;
    format      ascii;
    class       surfaceScalarField;
    location    "0.3";
    object      phi;
}
// * * * * * * * * * * * * * * * * * * * * * * * * * * * * * * * * * * * * * //

dimensions      [0 3 -1 0 0 0 0];

internalField   nonuniform List<scalar> 
760
(
5.87013e-08
-5.84919e-08
-1.19741e-07
1.78443e-07
-5.43461e-07
4.23719e-07
-1.13245e-06
5.88989e-07
-1.80191e-06
6.69462e-07
-2.47713e-06
6.75213e-07
-3.09455e-06
6.17424e-07
-3.59997e-06
5.05418e-07
-3.94705e-06
3.47081e-07
-4.09834e-06
1.51289e-07
-4.02902e-06
-6.93203e-08
-3.73264e-06
-2.96377e-07
-3.22716e-06
-5.05488e-07
-2.55917e-06
-6.67987e-07
-1.8042e-06
-7.54974e-07
-1.0609e-06
-7.43305e-07
-4.38159e-07
-6.22737e-07
-3.52796e-08
-4.02883e-07
8.97553e-08
-1.25041e-07
8.97496e-08
-1.75832e-07
1.17339e-07
-8.70763e-07
8.73372e-07
-2.03945e-06
1.5924e-06
-3.53553e-06
2.08507e-06
-5.18909e-06
2.32301e-06
-6.83596e-06
2.32208e-06
-8.32799e-06
2.10945e-06
-9.53583e-06
1.71325e-06
-1.03507e-05
1.16195e-06
-1.0689e-05
4.89544e-07
-1.05003e-05
-2.57958e-07
-9.77849e-06
-1.01821e-06
-8.57151e-06
-1.71246e-06
-6.98787e-06
-2.25163e-06
-5.19431e-06
-2.54853e-06
-3.40159e-06
-2.53603e-06
-1.83584e-06
-2.18848e-06
-6.96273e-07
-1.54245e-06
-1.00376e-07
-7.20929e-07
-1.06303e-08
-4.54845e-07
5.72183e-07
-1.70613e-06
2.12466e-06
-3.58411e-06
3.47038e-06
-5.87137e-06
4.37233e-06
-8.3369e-06
4.78855e-06
-1.07585e-05
4.74363e-06
-1.29332e-05
4.2842e-06
-1.46827e-05
3.46273e-06
-1.58572e-05
2.33649e-06
-1.63431e-05
9.75411e-07
-1.60732e-05
-5.27821e-07
-1.50404e-05
-2.05106e-06
-1.33095e-05
-3.44334e-06
-1.10254e-05
-4.53575e-06
-8.4102e-06
-5.16373e-06
-5.74632e-06
-5.19992e-06
-3.34128e-06
-4.59351e-06
-1.47636e-06
-3.40737e-06
-3.45464e-07
-1.85182e-06
-3.56094e-07
-7.09689e-07
1.28187e-06
-2.49643e-06
3.9114e-06
-5.04836e-06
6.02231e-06
-8.06268e-06
7.38665e-06
-1.12507e-05
7.97658e-06
-1.43461e-05
7.83902e-06
-1.71091e-05
7.04722e-06
-1.93294e-05
5.68296e-06
-2.08297e-05
3.83679e-06
-2.14738e-05
1.61954e-06
-2.11781e-05
-8.23462e-07
-1.99265e-05
-3.30268e-06
-1.77853e-05
-5.58457e-06
-1.49147e-05
-7.40633e-06
-1.15709e-05
-8.50759e-06
-8.09151e-06
-8.67927e-06
-4.86121e-06
-7.82382e-06
-2.25592e-06
-6.01267e-06
-5.77389e-07
-3.53035e-06
-9.33482e-07
-9.37166e-07
2.21903e-06
-3.2215e-06
6.19574e-06
-6.40439e-06
9.20519e-06
-1.00942e-05
1.10765e-05
-1.39463e-05
1.18287e-05
-1.76582e-05
1.15508e-05
-2.09643e-05
1.03534e-05
-2.36335e-05
8.35219e-06
-2.54694e-05
5.67269e-06
-2.63161e-05
2.46617e-06
-2.60692e-05
-1.07032e-06
-2.46925e-05
-4.67936e-06
-2.22367e-05
-8.04038e-06
-1.8858e-05
-1.0785e-05
-1.48296e-05
-1.2536e-05
-1.05369e-05
-1.29719e-05
-6.44857e-06
-1.19122e-05
-3.05763e-06
-9.40361e-06
-8.04069e-07
-5.78392e-06
-1.73755e-06
-1.14138e-06
3.36041e-06
-3.88187e-06
8.93622e-06
-7.64767e-06
1.2971e-05
-1.1962e-05
1.53908e-05
-1.64283e-05
1.6295e-05
-2.07147e-05
1.58372e-05
-2.45391e-05
1.41778e-05
-2.76583e-05
1.14714e-05
-2.98628e-05
7.87716e-06
-3.0978e-05
3.58141e-06
-3.08738e-05
-1.17451e-06
-2.94812e-05
-6.07196e-06
-2.68167e-05
-1.0705e-05
-2.30105e-05
-1.45912e-05
-1.83337e-05
-1.72128e-05
-1.32104e-05
-1.80952e-05
-8.20084e-06
-1.69218e-05
-3.94213e-06
-1.36623e-05
-1.04975e-06
-8.6763e-06
-2.78729e-06
-1.32545e-06
4.68586e-06
-4.4796e-06
1.20904e-05
-8.77437e-06
1.72658e-05
-1.36541e-05
2.02705e-05
-1.86769e-05
2.13178e-05
-2.34896e-05
2.06499e-05
-2.78032e-05
1.84914e-05
-3.13721e-05
1.50403e-05
-3.39805e-05
1.04856e-05
-3.54382e-05
5.03912e-06
-3.55854e-05
-1.02731e-06
-3.4309e-05
-7.34839e-06
-3.15713e-05
-1.34427e-05
-2.74508e-05
-1.87117e-05
-2.21891e-05
-2.24746e-05
-1.62294e-05
-2.40549e-05
-1.02237e-05
-2.29274e-05
-4.98101e-06
-1.89051e-05
-1.34229e-06
-1.2315e-05
-4.12958e-06
-1.49098e-06
6.17684e-06
-5.01467e-06
1.56141e-05
-9.77557e-06
2.20267e-05
-1.51451e-05
2.564e-05
-2.06437e-05
2.68163e-05
-2.59077e-05
2.5914e-05
-3.06533e-05
2.3237e-05
-3.46445e-05
1.90316e-05
-3.76707e-05
1.35118e-05
-3.95331e-05
6.9015e-06
-4.00436e-05
-5.16856e-07
-3.90375e-05
-8.35446e-06
-3.64048e-05
-1.60754e-05
-3.21415e-05
-2.2975e-05
-2.64206e-05
-2.81955e-05
-1.96674e-05
-3.08081e-05
-1.26086e-05
-2.99862e-05
-6.24573e-06
-2.52679e-05
-1.71083e-06
-1.68499e-05
-5.84041e-06
-1.6396e-06
7.81643e-06
-5.48751e-06
1.9462e-05
-1.06401e-05
2.71793e-05
-1.63986e-05
3.13985e-05
-2.22547e-05
3.26724e-05
-2.78476e-05
3.15069e-05
-3.29147e-05
2.8304e-05
-3.72469e-05
2.33638e-05
-4.0655e-05
1.69198e-05
-4.29461e-05
9.19265e-06
-4.39137e-05
4.50666e-07
-4.33425e-05
-8.9256e-06
-4.10372e-05
-1.83807e-05
-3.688e-05
-2.71322e-05
-3.09244e-05
-3.41511e-05
-2.35167e-05
-3.82158e-05
-1.54099e-05
-3.80929e-05
-7.80005e-06
-3.28778e-05
-2.18571e-06
-2.24643e-05
-8.02612e-06
-1.77675e-06
9.59318e-06
-5.9071e-06
2.35923e-05
-1.13648e-05
3.2637e-05
-1.73781e-05
3.74118e-05
-2.34203e-05
3.87145e-05
-2.91512e-05
3.72378e-05
-3.43504e-05
3.35033e-05
-3.88585e-05
2.78719e-05
-4.25309e-05
2.05922e-05
-4.52038e-05
1.18656e-05
-4.66728e-05
1.91963e-06
-4.66862e-05
-8.91219e-06
-4.49627e-05
-2.01042e-05
-4.12457e-05
-3.08492e-05
-3.54118e-05
-3.99849e-05
-2.764e-05
-4.59876e-05
-1.86176e-05
-4.71154e-05
-9.69207e-06
-4.18033e-05
-2.79988e-06
-2.93565e-05
-1.0826e-05
-1.91824e-06
1.15114e-05
-6.30428e-06
2.79783e-05
-1.19702e-05
3.83029e-05
-1.8062e-05
4.35036e-05
-2.40486e-05
4.47012e-05
-2.9636e-05
4.28252e-05
-3.4674e-05
3.85413e-05
-3.90812e-05
3.22791e-05
-4.27869e-05
2.42979e-05
-4.56876e-05
1.47663e-05
-4.76138e-05
3.84578e-06
-4.83075e-05
-8.21846e-06
-4.74207e-05
-2.09911e-05
-4.4551e-05
-3.37188e-05
-3.93464e-05
-4.51895e-05
-3.17104e-05
-5.36237e-05
-2.21151e-05
-5.67107e-05
-1.19409e-05
-5.19775e-05
-3.59109e-06
-3.77063e-05
-1.44171e-05
-2.10058e-06
1.3612e-05
-6.74995e-06
3.26277e-05
-1.25183e-05
4.40713e-05
-1.84558e-05
4.94411e-05
-2.40543e-05
5.02996e-05
-2.91034e-05
4.78743e-05
-3.35606e-05
4.29985e-05
-3.74562e-05
3.61746e-05
-4.08264e-05
2.76681e-05
-4.36637e-05
1.76037e-05
-4.5875e-05
6.05699e-06
-4.72427e-05
-6.85075e-06
-4.73966e-05
-2.08371e-05
-4.58134e-05
-3.5302e-05
-4.18875e-05
-4.91154e-05
-3.51384e-05
-6.03728e-05
-2.56202e-05
-6.62288e-05
-1.45119e-05
-6.30858e-05
-4.60437e-06
-4.76138e-05
-1.90215e-05
-2.39782e-06
1.60098e-05
-7.37713e-06
3.7607e-05
-1.31235e-05
4.98177e-05
-1.85883e-05
5.49059e-05
-2.33418e-05
5.50531e-05
-2.7319e-05
5.18515e-05
-3.06339e-05
4.63134e-05
-3.34653e-05
3.90061e-05
-3.59876e-05
3.01903e-05
-3.8322e-05
1.99381e-05
-4.04936e-05
8.22864e-06
-4.23822e-05
-4.96211e-06
-4.36651e-05
-1.95543e-05
-4.37654e-05
-3.52016e-05
-4.18538e-05
-5.10271e-05
-3.69964e-05
-6.52302e-05
-2.86005e-05
-7.46248e-05
-1.72703e-05
-7.4416e-05
-5.89261e-06
-5.89915e-05
-2.49141e-05
-2.9483e-06
1.89581e-05
-8.3986e-06
4.30573e-05
-1.39319e-05
5.53511e-05
-1.84511e-05
5.9425e-05
-2.17228e-05
5.83248e-05
-2.39245e-05
5.40531e-05
-2.53887e-05
4.77776e-05
-2.64776e-05
4.00951e-05
-2.75232e-05
3.12359e-05
-2.87933e-05
2.12082e-05
-3.04602e-05
9.89553e-06
-3.2552e-05
-2.87037e-06
-3.48764e-05
-1.72299e-05
-3.69159e-05
-3.31621e-05
-3.77268e-05
-5.02161e-05
-3.59489e-05
-6.70081e-05
-3.01585e-05
-8.04152e-05
-1.98933e-05
-8.46812e-05
-7.50551e-06
-7.13793e-05
-3.24196e-05
-3.99021e-06
2.29483e-05
-1.00866e-05
4.91537e-05
-1.49999e-05
6.02644e-05
-1.77982e-05
6.22233e-05
-1.86773e-05
5.9204e-05
-1.81987e-05
5.35745e-05
-1.69786e-05
4.65575e-05
-1.55802e-05
3.86966e-05
-1.44859e-05
3.01416e-05
-1.4097e-05
2.08194e-05
-1.47292e-05
1.05277e-05
-1.65819e-05
-1.01758e-06
-1.96647e-05
-1.41471e-05
-2.36573e-05
-2.91695e-05
-2.7701e-05
-4.61724e-05
-3.01958e-05
-6.45133e-05
-2.88706e-05
-8.17404e-05
-2.16953e-05
-9.18565e-05
-9.43169e-06
-8.36428e-05
-4.18513e-05
-5.86764e-06
2.8816e-05
-1.25846e-05
5.58707e-05
-1.58826e-05
6.35624e-05
-1.56121e-05
6.19528e-05
-1.27995e-05
5.63914e-05
-8.54744e-06
4.93224e-05
-3.78214e-06
4.17922e-05
7.68133e-07
3.41463e-05
4.52957e-06
2.63802e-05
7.02957e-06
1.83194e-05
7.86268e-06
9.69456e-06
6.68565e-06
1.59449e-07
3.26513e-06
-1.07266e-05
-2.39481e-06
-2.35096e-05
-9.77971e-06
-3.87875e-05
-1.74339e-05
-5.6859e-05
-2.25499e-05
-7.66244e-05
-2.12756e-05
-9.31309e-05
-1.13959e-05
-9.35225e-05
-5.32472e-05
-8.84444e-06
3.76604e-05
-1.51233e-05
6.21495e-05
-1.44557e-05
6.28948e-05
-8.86346e-06
5.63606e-05
-6.93833e-07
4.82217e-05
8.3893e-06
4.02393e-05
1.72792e-05
3.29023e-05
2.52388e-05
2.61868e-05
3.17458e-05
1.98732e-05
3.63811e-05
1.36841e-05
3.87557e-05
7.31997e-06
3.84694e-05
4.4569e-07
3.512e-05
-7.37722e-06
2.83567e-05
-1.67463e-05
1.81195e-05
-2.85504e-05
5.17997e-06
-4.39195e-05
-7.90747e-06
-6.35369e-05
-1.59108e-05
-8.51275e-05
-1.23651e-05
-9.70683e-05
-6.56122e-05
-1.21806e-05
4.9841e-05
-1.33927e-05
6.33617e-05
-3.93693e-06
5.3439e-05
9.96712e-06
4.24565e-05
2.47873e-05
3.34015e-05
3.8867e-05
2.61596e-05
5.14018e-05
2.03675e-05
6.19832e-05
1.56054e-05
7.03704e-05
1.1486e-05
7.63601e-05
7.69443e-06
7.97118e-05
3.96827e-06
8.00905e-05
6.69836e-08
7.70515e-05
-4.33826e-06
6.99796e-05
-9.6744e-06
5.81751e-05
-1.67458e-05
4.12107e-05
-2.69551e-05
2.0096e-05
-4.24222e-05
-3.49507e-07
-6.46821e-05
-9.57181e-06
-8.7846e-05
-7.51841e-05
-8.04563e-06
5.78867e-05
9.06002e-06
4.6256e-05
3.34612e-05
2.90378e-05
5.63473e-05
1.95704e-05
7.59538e-05
1.3795e-05
9.22286e-05
9.88478e-06
0.000105442
7.1543e-06
0.000115888
5.15969e-06
0.000123784
3.58974e-06
0.000129235
2.24268e-06
0.00013222
9.83987e-07
0.000132582
-2.95529e-07
0.000129958
-1.71414e-06
0.000123726
-3.44184e-06
0.000112815
-5.83503e-06
9.55683e-05
-9.70858e-06
7.01421e-05
-1.6996e-05
3.69222e-05
-3.14622e-05
5.45101e-06
-5.63748e-05
-6.9733e-05
5.78867e-05
0.000104143
0.00013318
0.000152751
0.000166546
0.000176431
0.000183585
0.000188745
0.000192334
0.000194577
0.000195561
0.000195266
0.000193551
0.00019011
0.000184275
0.000174566
0.00015757
0.000126108
6.9733e-05
)
;

boundaryField
{
    movingWall
    {
        type            calculated;
        value           uniform 0;
    }
    fixedWalls
    {
        type            calculated;
        value           uniform 0;
    }
    frontAndBack
    {
        type            empty;
        value           nonuniform List<scalar> 0();
    }
}


// ************************************************************************* //
