/*--------------------------------*- C++ -*----------------------------------*\
  =========                 |
  \\      /  F ield         | OpenFOAM: The Open Source CFD Toolbox
   \\    /   O peration     | Website:  https://openfoam.org
    \\  /    A nd           | Version:  8
     \\/     M anipulation  |
\*---------------------------------------------------------------------------*/
FoamFile
{
    version     2.0;
    format      ascii;
    class       volVectorField;
    location    "0.3";
    object      U;
}
// * * * * * * * * * * * * * * * * * * * * * * * * * * * * * * * * * * * * * //

dimensions      [0 1 -1 0 0 0 0];

internalField   nonuniform List<vector> 
400
(
(0.00109775 -0.00109589 0)
(0.000388462 0.000604179 0)
(-0.00581084 0.00260078 0)
(-0.0162634 0.00394758 0)
(-0.0291761 0.00461348 0)
(-0.0429205 0.00471303 0)
(-0.0561068 0.00435347 0)
(-0.0675566 0.0036101 0)
(-0.0762618 0.0025341 0)
(-0.0813734 0.00117744 0)
(-0.0822504 -0.000379728 0)
(-0.0785586 -0.00200944 0)
(-0.0703951 -0.0035297 0)
(-0.0583998 -0.004717 0)
(-0.0438081 -0.00533761 0)
(-0.0284025 -0.00519566 0)
(-0.0143278 -0.0041919 0)
(-0.0037568 -0.00238534 0)
(0.00159814 -0.000127399 0)
(0.00140191 0.00135704 0)
(-0.000544882 -0.00048588 0)
(-0.00805235 0.00797299 0)
(-0.0271254 0.0166732 0)
(-0.0546173 0.0226848 0)
(-0.0869225 0.0256541 0)
(-0.120671 0.0258399 0)
(-0.152725 0.023608 0)
(-0.180292 0.0192964 0)
(-0.200973 0.0132169 0)
(-0.212816 0.00573014 0)
(-0.214437 -0.00266245 0)
(-0.205226 -0.0112555 0)
(-0.185564 -0.0191329 0)
(-0.157009 -0.0252368 0)
(-0.122352 -0.0285166 0)
(-0.0854662 -0.0281493 0)
(-0.0508683 -0.023803 0)
(-0.0229879 -0.0159 0)
(-0.00540744 -0.00601075 0)
(0.000216231 0.00177019 0)
(-0.00274951 0.00580791 0)
(-0.0180906 0.0273719 0)
(-0.0501578 0.047154 0)
(-0.0931118 0.0606906 0)
(-0.141787 0.0671633 0)
(-0.191702 0.0669242 0)
(-0.238605 0.0606767 0)
(-0.278652 0.0491947 0)
(-0.308531 0.0332989 0)
(-0.325568 0.0139839 0)
(-0.327898 -0.00741847 0)
(-0.314722 -0.0291302 0)
(-0.286571 -0.0489356 0)
(-0.245531 -0.0643477 0)
(-0.195318 -0.07295 0)
(-0.141101 -0.0728941 0)
(-0.0889466 -0.0634903 0)
(-0.0449064 -0.045773 0)
(-0.0144248 -0.0230968 0)
(-0.00160734 -0.00264023 0)
(-0.00472037 0.0175391 0)
(-0.0275144 0.0579743 0)
(-0.0720958 0.0918174 0)
(-0.129518 0.114216 0)
(-0.192966 0.124312 0)
(-0.257055 0.122732 0)
(-0.316764 0.110626 0)
(-0.367557 0.0893078 0)
(-0.405529 0.0602402 0)
(-0.427501 0.0252169 0)
(-0.431215 -0.0133976 0)
(-0.415605 -0.0525097 0)
(-0.381115 -0.0883156 0)
(-0.329978 -0.116565 0)
(-0.266387 -0.133107 0)
(-0.196399 -0.134704 0)
(-0.127393 -0.120009 0)
(-0.0670983 -0.0904833 0)
(-0.0232862 -0.0511517 0)
(-0.00324741 -0.01187 0)
(-0.00642749 0.0340986 0)
(-0.0360498 0.098879 0)
(-0.0923589 0.149412 0)
(-0.1633 0.181539 0)
(-0.240391 0.19501 0)
(-0.317443 0.191076 0)
(-0.388869 0.171514 0)
(-0.449688 0.138276 0)
(-0.495602 0.0935196 0)
(-0.523051 0.0398775 0)
(-0.529371 -0.0192093 0)
(-0.51308 -0.0792605 0)
(-0.474237 -0.134748 0)
(-0.414839 -0.179417 0)
(-0.339165 -0.207003 0)
(-0.253884 -0.212376 0)
(-0.167658 -0.192967 0)
(-0.0901972 -0.150151 0)
(-0.032199 -0.0902554 0)
(-0.00475222 -0.0256218 0)
(-0.00793127 0.0549706 0)
(-0.0437606 0.149319 0)
(-0.110887 0.219138 0)
(-0.194332 0.261837 0)
(-0.284027 0.278441 0)
(-0.373082 0.271257 0)
(-0.45551 0.242929 0)
(-0.526074 0.196141 0)
(-0.58025 0.133747 0)
(-0.614174 0.0591575 0)
(-0.624743 -0.0231939 0)
(-0.609876 -0.107502 0)
(-0.568928 -0.186481 0)
(-0.503239 -0.251664 0)
(-0.416728 -0.29422 0)
(-0.316359 -0.306412 0)
(-0.212032 -0.283569 0)
(-0.115783 -0.226155 0)
(-0.0419795 -0.141309 0)
(-0.00634407 -0.0440065 0)
(-0.00927701 0.079722 0)
(-0.0507231 0.20847 0)
(-0.127676 0.300025 0)
(-0.22246 0.354099 0)
(-0.323554 0.373655 0)
(-0.423505 0.362528 0)
(-0.516114 0.324494 0)
(-0.596085 0.263061 0)
(-0.658844 0.181728 0)
(-0.700336 0.0845346 0)
(-0.717014 -0.0233099 0)
(-0.706052 -0.13488 0)
(-0.665788 -0.241236 0)
(-0.596426 -0.33157 0)
(-0.500966 -0.393999 0)
(-0.386146 -0.417268 0)
(-0.262855 -0.393359 0)
(-0.145701 -0.320554 0)
(-0.0536179 -0.20603 0)
(-0.00828078 -0.0676714 0)
(-0.0104915 0.107966 0)
(-0.0569811 0.275466 0)
(-0.142671 0.390913 0)
(-0.24737 0.457008 0)
(-0.358255 0.479326 0)
(-0.467491 0.463737 0)
(-0.568894 0.415444 0)
(-0.65737 0.338866 0)
(-0.728533 0.238062 0)
(-0.778329 0.117459 0)
(-0.802868 -0.0172938 0)
(-0.798529 -0.158523 0)
(-0.762382 -0.29593 0)
(-0.693007 -0.416411 0)
(-0.591761 -0.504627 0)
(-0.464332 -0.544773 0)
(-0.321945 -0.523827 0)
(-0.181724 -0.435969 0)
(-0.0681615 -0.28702 0)
(-0.0108433 -0.0978444 0)
(-0.0116017 0.139341 0)
(-0.0625912 0.349403 0)
(-0.155825 0.490437 0)
(-0.268653 0.568835 0)
(-0.387081 0.593529 0)
(-0.503121 0.572999 0)
(-0.61091 0.51421 0)
(-0.70589 0.422593 0)
(-0.784209 0.302654 0)
(-0.842132 0.158914 0)
(-0.87568 -0.00298878 0)
(-0.880567 -0.175188 0)
(-0.8525 -0.346573 0)
(-0.788011 -0.502092 0)
(-0.685981 -0.622808 0)
(-0.549867 -0.687386 0)
(-0.389978 -0.675769 0)
(-0.225276 -0.575226 0)
(-0.0866814 -0.387684 0)
(-0.0143552 -0.136355 0)
(-0.0126759 0.17354 0)
(-0.0677487 0.429382 0)
(-0.167285 0.596987 0)
(-0.286011 0.687268 0)
(-0.408856 0.713438 0)
(-0.527982 0.68728 0)
(-0.638248 0.617914 0)
(-0.736078 0.511912 0)
(-0.818616 0.374119 0)
(-0.882914 0.208828 0)
(-0.925357 0.0211366 0)
(-0.941366 -0.181614 0)
(-0.925461 -0.38834 0)
(-0.871914 -0.582834 0)
(-0.77634 -0.742928 0)
(-0.638466 -0.841144 0)
(-0.465683 -0.848207 0)
(-0.277088 -0.740599 0)
(-0.110269 -0.511982 0)
(-0.0192273 -0.18567 0)
(-0.0138966 0.210441 0)
(-0.0729996 0.51466 0)
(-0.1777 0.708721 0)
(-0.299574 0.80925 0)
(-0.42256 0.835011 0)
(-0.539412 0.801961 0)
(-0.646272 0.721846 0)
(-0.741114 0.602533 0)
(-0.822649 0.449118 0)
(-0.889321 0.265363 0)
(-0.938522 0.0552789 0)
(-0.966038 -0.175142 0)
(-0.965749 -0.41597 0)
(-0.929866 -0.651155 0)
(-0.850236 -0.856454 0)
(-0.721288 -0.998476 0)
(-0.544749 -1.03689 0)
(-0.336654 -0.932597 0)
(-0.140012 -0.663946 0)
(-0.0260282 -0.248974 0)
(-0.0156838 0.250411 0)
(-0.0795591 0.604966 0)
(-0.188605 0.823622 0)
(-0.310215 0.930776 0)
(-0.427527 0.952623 0)
(-0.534649 0.910402 0)
(-0.629793 0.818989 0)
(-0.713189 0.687689 0)
(-0.785768 0.521775 0)
(-0.848031 0.324224 0)
(-0.899147 0.0974873 0)
(-0.936162 -0.154604 0)
(-0.953275 -0.424562 0)
(-0.941439 -0.698324 0)
(-0.888882 -0.951715 0)
(-0.783556 -1.14707 0)
(-0.618356 -1.23245 0)
(-0.401316 -1.1481 0)
(-0.176884 -0.846824 0)
(-0.0355882 -0.330315 0)
(-0.0189144 0.294876 0)
(-0.0897717 0.70097 0)
(-0.202786 0.939482 0)
(-0.3196 1.04653 0)
(-0.423211 1.05858 0)
(-0.510434 1.00347 0)
(-0.582708 0.899623 0)
(-0.643361 0.757794 0)
(-0.696188 0.583309 0)
(-0.744349 0.37817 0)
(-0.789508 0.142953 0)
(-0.830944 -0.121299 0)
(-0.864471 -0.410753 0)
(-0.881254 -0.715448 0)
(-0.867091 -1.0144 0)
(-0.803364 -1.26923 0)
(-0.671373 -1.41831 0)
(-0.464774 -1.37772 0)
(-0.221382 -1.06151 0)
(-0.0491257 -0.434805 0)
(-0.0253 0.347353 0)
(-0.107706 0.804805 0)
(-0.224308 1.05349 0)
(-0.329354 1.14902 0)
(-0.407668 1.14228 0)
(-0.461212 1.06898 0)
(-0.496275 0.951077 0)
(-0.520195 0.80045 0)
(-0.540113 0.62216 0)
(-0.562171 0.417057 0)
(-0.590931 0.183745 0)
(-0.628652 -0.0797651 0)
(-0.674083 -0.374077 0)
(-0.720614 -0.695242 0)
(-0.754052 -1.02915 0)
(-0.751021 -1.34228 0)
(-0.680291 -1.56911 0)
(-0.514688 -1.60227 0)
(-0.27249 -1.30366 0)
(-0.0682842 -0.568679 0)
(-0.0379421 0.415115 0)
(-0.139583 0.920139 0)
(-0.257131 1.16071 0)
(-0.337687 1.22675 0)
(-0.372982 1.18885 0)
(-0.374206 1.09103 0)
(-0.354492 0.957802 0)
(-0.325876 0.801079 0)
(-0.29886 0.624946 0)
(-0.282285 0.428845 0)
(-0.283371 0.209516 0)
(-0.307464 -0.0377672 0)
(-0.357089 -0.318005 0)
(-0.429895 -0.634233 0)
(-0.515195 -0.982487 0)
(-0.5892 -1.34096 0)
(-0.610924 -1.65055 0)
(-0.528755 -1.78909 0)
(-0.324824 -1.55883 0)
(-0.0945478 -0.73865 0)
(-0.0616039 0.511938 0)
(-0.192364 1.05038 0)
(-0.29896 1.24978 0)
(-0.329464 1.26044 0)
(-0.293981 1.17702 0)
(-0.218554 1.04961 0)
(-0.124567 0.902299 0)
(-0.0283925 0.744764 0)
(0.0571848 0.578833 0)
(0.121901 0.402123 0)
(0.157099 0.209806 0)
(0.155242 -0.00473927 0)
(0.110254 -0.249774 0)
(0.0190284 -0.534571 0)
(-0.114886 -0.866609 0)
(-0.273966 -1.242 0)
(-0.415782 -1.62193 0)
(-0.468225 -1.8894 0)
(-0.361644 -1.79598 0)
(-0.126318 -0.951111 0)
(-0.100319 0.663638 0)
(-0.264351 1.19043 0)
(-0.320512 1.29046 0)
(-0.250671 1.21422 0)
(-0.104143 1.07534 0)
(0.0747795 0.920573 0)
(0.258702 0.767405 0)
(0.430103 0.61977 0)
(0.576981 0.475608 0)
(0.690327 0.330348 0)
(0.762329 0.178108 0)
(0.785223 0.0116939 0)
(0.750941 -0.178218 0)
(0.651428 -0.404232 0)
(0.481002 -0.682885 0)
(0.243724 -1.03021 0)
(-0.0309138 -1.44137 0)
(-0.268118 -1.83676 0)
(-0.341174 -1.95768 0)
(-0.149691 -1.21103 0)
(-0.140746 0.907992 0)
(-0.306694 1.29758 0)
(-0.205699 1.20627 0)
(0.0482392 1.02344 0)
(0.34681 0.841734 0)
(0.641123 0.681167 0)
(0.909995 0.543858 0)
(1.14274 0.425142 0)
(1.33353 0.318533 0)
(1.47836 0.217748 0)
(1.5731 0.116881 0)
(1.6122 0.00976894 0)
(1.58808 -0.11116 0)
(1.49016 -0.257369 0)
(1.30471 -0.447472 0)
(1.01841 -0.710564 0)
(0.630274 -1.08007 0)
(0.179646 -1.55024 0)
(-0.170562 -1.9332 0)
(-0.111634 -1.48565 0)
(-0.0347617 1.1658 0)
(-0.0501729 1.21169 0)
(0.399247 0.890106 0)
(0.904361 0.647635 0)
(1.33682 0.478872 0)
(1.69499 0.356788 0)
(1.98875 0.266607 0)
(2.22456 0.197529 0)
(2.40745 0.141295 0)
(2.54079 0.0919935 0)
(2.62553 0.045273 0)
(2.65999 -0.00258114 0)
(2.63927 -0.0556531 0)
(2.5539 -0.120319 0)
(2.3877 -0.208525 0)
(2.11449 -0.345223 0)
(1.69407 -0.580285 0)
(1.07746 -0.984233 0)
(0.384902 -1.5247 0)
(0.183208 -1.52595 0)
(1.31177 0.644447 0)
(1.68053 0.570611 0)
(2.34959 0.360787 0)
(2.87365 0.226054 0)
(3.21243 0.146009 0)
(3.44295 0.0961653 0)
(3.60925 0.0642234 0)
(3.73039 0.0429637 0)
(3.81672 0.0277709 0)
(3.8744 0.0158049 0)
(3.90645 0.00531765 0)
(3.91351 -0.00487714 0)
(3.89404 -0.0159281 0)
(3.84373 -0.0293976 0)
(3.75336 -0.0484425 0)
(3.60312 -0.0808072 0)
(3.34671 -0.146702 0)
(2.86114 -0.292293 0)
(2.06709 -0.568992 0)
(1.5018 -0.706019 0)
)
;

boundaryField
{
    movingWall
    {
        type            fixedValue;
        value           uniform (4.6 0 0);
    }
    fixedWalls
    {
        type            noSlip;
    }
    frontAndBack
    {
        type            empty;
    }
}


// ************************************************************************* //
