/*--------------------------------*- C++ -*----------------------------------*\
  =========                 |
  \\      /  F ield         | OpenFOAM: The Open Source CFD Toolbox
   \\    /   O peration     | Website:  https://openfoam.org
    \\  /    A nd           | Version:  8
     \\/     M anipulation  |
\*---------------------------------------------------------------------------*/
FoamFile
{
    version     2.0;
    format      ascii;
    class       volVectorField;
    location    "0.1";
    object      U;
}
// * * * * * * * * * * * * * * * * * * * * * * * * * * * * * * * * * * * * * //

dimensions      [0 1 -1 0 0 0 0];

internalField   nonuniform List<vector> 
400
(
(0.000933582 -0.000944274 0)
(0.000351375 0.000503254 0)
(-0.00492813 0.00222497 0)
(-0.0138671 0.00339105 0)
(-0.0249408 0.00396775 0)
(-0.0367304 0.0040479 0)
(-0.0480206 0.00372417 0)
(-0.0577864 0.00306744 0)
(-0.0651673 0.0021306 0)
(-0.069459 0.00096599 0)
(-0.070147 -0.000354194 0)
(-0.06698 -0.00172294 0)
(-0.060061 -0.00299316 0)
(-0.0499313 -0.00398605 0)
(-0.0376116 -0.00451352 0)
(-0.0245698 -0.00441366 0)
(-0.0125834 -0.003596 0)
(-0.003484 -0.00209196 0)
(0.00123029 -0.000171552 0)
(0.00117025 0.00113456 0)
(-0.000454055 -0.000438841 0)
(-0.00680485 0.00675396 0)
(-0.0230253 0.0142264 0)
(-0.0464897 0.019417 0)
(-0.0741176 0.0219835 0)
(-0.102989 0.0221258 0)
(-0.130378 0.0201616 0)
(-0.153874 0.016406 0)
(-0.171433 0.0111603 0)
(-0.181425 0.0047621 0)
(-0.182729 -0.00234884 0)
(-0.174879 -0.00958242 0)
(-0.158232 -0.0161918 0)
(-0.134103 -0.0213221 0)
(-0.104809 -0.024121 0)
(-0.0735591 -0.0239044 0)
(-0.0441103 -0.0203636 0)
(-0.0201939 -0.013784 0)
(-0.00492399 -0.00539732 0)
(0.0001066 0.00137423 0)
(-0.00230658 0.00486545 0)
(-0.0152894 0.0232189 0)
(-0.0425596 0.0401921 0)
(-0.0792016 0.0518713 0)
(-0.1208 0.0574664 0)
(-0.163473 0.0572342 0)
(-0.203531 0.0517883 0)
(-0.23766 0.0418458 0)
(-0.263039 0.02818 0)
(-0.277432 0.0116991 0)
(-0.279319 -0.00643871 0)
(-0.268085 -0.0247438 0)
(-0.244224 -0.0413995 0)
(-0.209506 -0.0543845 0)
(-0.167031 -0.0617285 0)
(-0.121092 -0.0618935 0)
(-0.0767401 -0.05424 0)
(-0.0390569 -0.0394966 0)
(-0.0127343 -0.0203025 0)
(-0.00148897 -0.00259815 0)
(-0.00396381 0.0147654 0)
(-0.0232693 0.0491939 0)
(-0.0612169 0.078244 0)
(-0.110247 0.097581 0)
(-0.164516 0.106319 0)
(-0.219342 0.104925 0)
(-0.270359 0.0944069 0)
(-0.313651 0.075982 0)
(-0.345888 0.0510148 0)
(-0.364409 0.0211311 0)
(-0.367371 -0.0116151 0)
(-0.353955 -0.0446257 0)
(-0.324604 -0.0747693 0)
(-0.281242 -0.0985789 0)
(-0.227389 -0.112666 0)
(-0.168093 -0.114344 0)
(-0.109487 -0.102402 0)
(-0.058031 -0.0778522 0)
(-0.0203587 -0.0446144 0)
(-0.00291555 -0.0107407 0)
(-0.0054074 0.0287492 0)
(-0.0305568 0.0839656 0)
(-0.078613 0.127394 0)
(-0.139341 0.155166 0)
(-0.205429 0.166837 0)
(-0.271464 0.163389 0)
(-0.332563 0.146387 0)
(-0.384407 0.117641 0)
(-0.423323 0.0791637 0)
(-0.446333 0.0333438 0)
(-0.45127 -0.0168206 0)
(-0.436996 -0.0675509 0)
(-0.403681 -0.114279 0)
(-0.3531 -0.151891 0)
(-0.288893 -0.175275 0)
(-0.216639 -0.180203 0)
(-0.143528 -0.164441 0)
(-0.0776255 -0.128863 0)
(-0.0279717 -0.0783328 0)
(-0.00421958 -0.022777 0)
(-0.00670159 0.0464298 0)
(-0.03726 0.126992 0)
(-0.0948087 0.187105 0)
(-0.166544 0.224067 0)
(-0.24372 0.238446 0)
(-0.32026 0.232112 0)
(-0.390892 0.207407 0)
(-0.451047 0.166828 0)
(-0.49685 0.113056 0)
(-0.525071 0.0492095 0)
(-0.533201 -0.0208227 0)
(-0.519646 -0.0921132 0)
(-0.484056 -0.158617 0)
(-0.427736 -0.213396 0)
(-0.354104 -0.249258 0)
(-0.269026 -0.25987 0)
(-0.180718 -0.241291 0)
(-0.0991175 -0.19359 0)
(-0.0362392 -0.122135 0)
(-0.00558547 -0.0387679 0)
(-0.00789694 0.067515 0)
(-0.0434948 0.177734 0)
(-0.109903 0.25674 0)
(-0.191871 0.303609 0)
(-0.279292 0.320487 0)
(-0.365528 0.310554 0)
(-0.445063 0.277178 0)
(-0.513248 0.223645 0)
(-0.566148 0.153279 0)
(-0.600382 0.0698232 0)
(-0.613098 -0.0220962 0)
(-0.602137 -0.116551 0)
(-0.566381 -0.206082 0)
(-0.506293 -0.281814 0)
(-0.424634 -0.334082 0)
(-0.327168 -0.35374 0)
(-0.222952 -0.334169 0)
(-0.12399 -0.273632 0)
(-0.0459589 -0.177352 0)
(-0.00722244 -0.0592137 0)
(-0.00902739 0.0917792 0)
(-0.049342 0.235661 0)
(-0.123934 0.335549 0)
(-0.215168 0.392885 0)
(-0.311664 0.411997 0)
(-0.406361 0.397843 0)
(-0.493699 0.355094 0)
(-0.569163 0.287924 0)
(-0.628971 0.200253 0)
(-0.66975 0.0962689 0)
(-0.688391 -0.0189231 0)
(-0.682124 -0.138676 0)
(-0.648855 -0.254332 0)
(-0.58781 -0.355094 0)
(-0.500523 -0.42849 0)
(-0.392023 -0.461744 0)
(-0.271724 -0.444274 0)
(-0.153669 -0.371049 0)
(-0.0579688 -0.246021 0)
(-0.0093555 -0.0850821 0)
(-0.0101253 0.11904 0)
(-0.0548822 0.300247 0)
(-0.136911 0.422632 0)
(-0.236141 0.490649 0)
(-0.339988 0.511507 0)
(-0.441161 0.492482 0)
(-0.534324 0.439872 0)
(-0.615401 0.358853 0)
(-0.681062 0.253859 0)
(-0.728215 0.129294 0)
(-0.753698 -0.00961865 0)
(-0.754218 -0.155947 0)
(-0.726603 -0.300255 0)
(-0.668474 -0.430075 0)
(-0.579456 -0.52998 0)
(-0.462913 -0.582767 0)
(-0.327666 -0.572303 0)
(-0.189323 -0.48809 0)
(-0.0731249 -0.33083 0)
(-0.0122416 -0.117822 0)
(-0.0112563 0.149179 0)
(-0.060299 0.370981 0)
(-0.148972 0.516876 0)
(-0.254512 0.59514 0)
(-0.363183 0.616755 0)
(-0.467739 0.591978 0)
(-0.563443 0.529119 0)
(-0.647064 0.434486 0)
(-0.716141 0.312948 0)
(-0.768263 0.168849 0)
(-0.80058 0.00709508 0)
(-0.809552 -0.165688 0)
(-0.791023 -0.339956 0)
(-0.740772 -0.502166 0)
(-0.655821 -0.634174 0)
(-0.536652 -0.713803 0)
(-0.389946 -0.717609 0)
(-0.231615 -0.626623 0)
(-0.0923083 -0.434926 0)
(-0.0162063 -0.159394 0)
(-0.0125809 0.182241 0)
(-0.0660556 0.447475 0)
(-0.160615 0.616926 0)
(-0.270245 0.70389 0)
(-0.380114 0.724358 0)
(-0.483448 0.69242 0)
(-0.576641 0.618851 0)
(-0.657848 0.511235 0)
(-0.725997 0.374792 0)
(-0.779883 0.213531 0)
(-0.817499 0.031553 0)
(-0.835559 -0.165526 0)
(-0.829295 -0.368977 0)
(-0.792702 -0.565221 0)
(-0.719679 -0.734242 0)
(-0.606471 -0.848947 0)
(-0.455415 -0.877019 0)
(-0.280312 -0.787215 0)
(-0.116426 -0.561573 0)
(-0.0217028 -0.212338 0)
(-0.0144624 0.218686 0)
(-0.0731648 0.529698 0)
(-0.173012 0.721176 0)
(-0.28376 0.813479 0)
(-0.389675 0.829433 0)
(-0.485187 0.78804 0)
(-0.568589 0.703026 0)
(-0.6401 0.583376 0)
(-0.700645 0.434565 0)
(-0.75082 0.259997 0)
(-0.790096 0.0625064 0)
(-0.816149 -0.154039 0)
(-0.824306 -0.382832 0)
(-0.807295 -0.611747 0)
(-0.755825 -0.82055 0)
(-0.660756 -0.978362 0)
(-0.517412 -1.0433 0)
(-0.333603 -0.967682 0)
(-0.146361 -0.713517 0)
(-0.0294047 -0.279907 0)
(-0.0176581 0.259876 0)
(-0.0835784 0.618324 0)
(-0.188281 0.827657 0)
(-0.295897 0.919105 0)
(-0.390465 0.925059 0)
(-0.468927 0.870709 0)
(-0.53259 0.773133 0)
(-0.584548 0.642707 0)
(-0.628334 0.484989 0)
(-0.666887 0.30253 0)
(-0.701764 0.0965262 0)
(-0.732394 -0.131534 0)
(-0.755203 -0.377872 0)
(-0.762726 -0.633616 0)
(-0.743226 -0.88082 0)
(-0.681785 -1.08749 0)
(-0.564168 -1.20332 0)
(-0.386928 -1.16096 0)
(-0.182754 -0.891833 0)
(-0.040332 -0.366282 0)
(-0.0236474 0.308941 0)
(-0.100677 0.715091 0)
(-0.209413 0.93354 0)
(-0.307047 1.0137 0)
(-0.379327 1.00144 0)
(-0.428027 0.929365 0)
(-0.459008 0.817916 0)
(-0.479099 0.678499 0)
(-0.49489 0.51639 0)
(-0.511938 0.333012 0)
(-0.534239 0.127722 0)
(-0.5636 -0.100722 0)
(-0.598633 -0.352386 0)
(-0.633275 -0.623383 0)
(-0.655152 -0.901155 0)
(-0.644681 -1.15699 0)
(-0.576768 -1.3364 0)
(-0.430964 -1.35213 0)
(-0.22528 -1.09371 0)
(-0.0559371 -0.476728 0)
(-0.0350986 0.372185 0)
(-0.129563 0.822694 0)
(-0.238902 1.0336 0)
(-0.314025 1.08616 0)
(-0.347252 1.04462 0)
(-0.348977 0.949443 0)
(-0.331434 0.823471 0)
(-0.305777 0.678075 0)
(-0.281616 0.517512 0)
(-0.266839 0.341723 0)
(-0.267638 0.148211 0)
(-0.288319 -0.0668899 0)
(-0.330452 -0.307635 0)
(-0.391145 -0.576181 0)
(-0.460256 -0.868305 0)
(-0.516842 -1.16432 0)
(-0.526575 -1.41358 0)
(-0.448069 -1.51495 0)
(-0.270436 -1.30851 0)
(-0.0777396 -0.617279 0)
(-0.0560282 0.461371 0)
(-0.175603 0.942929 0)
(-0.273076 1.11624 0)
(-0.301278 1.118 0)
(-0.269717 1.03477 0)
(-0.202433 0.912728 0)
(-0.119171 0.774285 0)
(-0.0349026 0.628604 0)
(0.0388452 0.477635 0)
(0.0931009 0.319455 0)
(0.120603 0.149877 0)
(0.115284 -0.0369267 0)
(0.0726425 -0.248161 0)
(-0.00887391 -0.491667 0)
(-0.124675 -0.773065 0)
(-0.258091 -1.08727 0)
(-0.371991 -1.399 0)
(-0.406006 -1.60866 0)
(-0.305635 -1.51204 0)
(-0.105077 -0.794309 0)
(-0.0894516 0.598382 0)
(-0.235738 1.06915 0)
(-0.283804 1.15247 0)
(-0.219135 1.07595 0)
(-0.0869249 0.943399 0)
(0.0725463 0.797936 0)
(0.234403 0.655737 0)
(0.382988 0.520472 0)
(0.50786 0.390299 0)
(0.601468 0.261129 0)
(0.657493 0.127602 0)
(0.669792 -0.0168652 0)
(0.632076 -0.180715 0)
(0.538364 -0.37514 0)
(0.385274 -0.61405 0)
(0.178465 -0.909463 0)
(-0.0544138 -1.25367 0)
(-0.247899 -1.57537 0)
(-0.296705 -1.65739 0)
(-0.12745 -1.01421 0)
(-0.122087 0.814106 0)
(-0.264454 1.1607 0)
(-0.167788 1.0735 0)
(0.0626034 0.90315 0)
(0.329488 0.734614 0)
(0.589276 0.586708 0)
(0.823312 0.461362 0)
(1.02261 0.354199 0)
(1.18268 0.259234 0)
(1.30074 0.17073 0)
(1.37383 0.0832572 0)
(1.39781 -0.00890014 0)
(1.36658 -0.11286 0)
(1.27146 -0.239087 0)
(1.10138 -0.404017 0)
(0.846349 -0.631908 0)
(0.508188 -0.94794 0)
(0.124722 -1.34145 0)
(-0.163025 -1.65073 0)
(-0.101052 -1.25458 0)
(-0.0207444 1.031 0)
(-0.0259251 1.07402 0)
(0.377768 0.786841 0)
(0.827335 0.567223 0)
(1.20838 0.414074 0)
(1.5201 0.304024 0)
(1.77206 0.2235 0)
(1.9709 0.162494 0)
(2.12195 0.113464 0)
(2.22894 0.0710665 0)
(2.29336 0.0313614 0)
(2.31422 -0.00906392 0)
(2.28749 -0.0541341 0)
(2.20506 -0.109794 0)
(2.05264 -0.187061 0)
(1.80751 -0.307978 0)
(1.43557 -0.514081 0)
(0.898201 -0.860899 0)
(0.305701 -1.31711 0)
(0.144056 -1.30726 0)
(1.14957 0.564167 0)
(1.48009 0.499037 0)
(2.0725 0.313227 0)
(2.53182 0.193945 0)
(2.82504 0.123443 0)
(3.02185 0.079995 0)
(3.16163 0.0524918 0)
(3.26165 0.0344119 0)
(3.33143 0.0216566 0)
(3.37667 0.0117417 0)
(3.40025 0.00314402 0)
(3.40288 -0.00518882 0)
(3.38328 -0.0143189 0)
(3.33761 -0.0257353 0)
(3.25733 -0.0424639 0)
(3.12449 -0.071728 0)
(2.897 -0.131427 0)
(2.46745 -0.260471 0)
(1.777 -0.499165 0)
(1.29412 -0.612374 0)
)
;

boundaryField
{
    movingWall
    {
        type            fixedValue;
        value           uniform (4 0 0);
    }
    fixedWalls
    {
        type            noSlip;
    }
    frontAndBack
    {
        type            empty;
    }
}


// ************************************************************************* //
