/*--------------------------------*- C++ -*----------------------------------*\
  =========                 |
  \\      /  F ield         | OpenFOAM: The Open Source CFD Toolbox
   \\    /   O peration     | Website:  https://openfoam.org
    \\  /    A nd           | Version:  8
     \\/     M anipulation  |
\*---------------------------------------------------------------------------*/
FoamFile
{
    version     2.0;
    format      ascii;
    class       volScalarField;
    location    "0.2";
    object      p;
}
// * * * * * * * * * * * * * * * * * * * * * * * * * * * * * * * * * * * * * //

dimensions      [0 2 -2 0 0 0 0];

internalField   nonuniform List<scalar> 
400
(
1.29884e-05
-0.0139715
-0.0308062
-0.0435168
-0.0482073
-0.0431937
-0.0283236
-0.00448763
0.0266758
0.0629251
0.101508
0.139281
0.172922
0.199255
0.215694
0.220782
0.214766
0.200132
0.181992
0.1681
0.0139113
-0.000529236
-0.0136852
-0.0223444
-0.0247746
-0.0198212
-0.00729204
0.0122089
0.0374767
0.0667958
0.098009
0.128628
0.156017
0.177674
0.191594
0.196678
0.193165
0.182848
0.168563
0.154379
0.0317478
0.0117942
-0.00234729
-0.0102015
-0.0121357
-0.00761618
0.00338583
0.0203306
0.0422464
0.0677473
0.0950451
0.122018
0.146363
0.165833
0.178556
0.183397
0.180354
0.170588
0.154993
0.135234
0.0472418
0.0198602
0.00243657
-0.0064311
-0.00888863
-0.00496107
0.00515834
0.020889
0.0413717
0.065414
0.0914333
0.117471
0.141301
0.16064
0.173443
0.178267
0.174727
0.163441
0.143806
0.116116
0.0560508
0.0210492
-0.000229172
-0.010646
-0.0138783
-0.0104197
-0.000661375
0.0147641
0.0350751
0.059219
0.0857439
0.112753
0.137963
0.158888
0.173119
0.178721
0.174805
0.161466
0.136833
0.10036
0.0548784
0.0124429
-0.0127485
-0.0247786
-0.0286833
-0.0253496
-0.0153263
0.000719223
0.0220817
0.047831
0.0766117
0.10653
0.135157
0.159669
0.177119
0.184886
0.181408
0.166183
0.136128
0.0901397
0.0408996
-0.00874768
-0.0376756
-0.0510866
-0.0553023
-0.0515649
-0.040548
-0.0229231
0.000707071
0.0295552
0.0623727
0.0972598
0.131595
0.162113
0.185157
0.197183
0.195705
0.17941
0.143819
0.0873297
0.0113678
-0.0453178
-0.0776355
-0.091928
-0.0958447
-0.0909983
-0.0781719
-0.0580032
-0.030939
0.00244102
0.0410618
0.0830713
0.12567
0.165096
0.196819
0.216084
0.219115
0.203389
0.162527
0.0942451
-0.0366426
-0.100285
-0.135474
-0.149841
-0.152548
-0.145663
-0.130092
-0.1064
-0.0747962
-0.0355417
0.0105925
0.0619334
0.115603
0.167362
0.211677
0.242267
0.253562
0.241175
0.195917
0.114323
-0.106436
-0.177079
-0.214336
-0.227482
-0.227591
-0.217373
-0.197904
-0.169639
-0.132444
-0.0860999
-0.0308746
0.0319615
0.0996656
0.167658
0.229374
0.2767
0.301651
0.297014
0.249309
0.152876
-0.201988
-0.27981
-0.317752
-0.327489
-0.322771
-0.307275
-0.282342
-0.248269
-0.20444
-0.14995
-0.0842896
-0.00800544
0.0766496
0.165076
0.249833
0.320798
0.366904
0.376813
0.330472
0.218127
-0.328568
-0.413776
-0.449783
-0.452262
-0.439023
-0.415204
-0.382516
-0.341024
-0.289439
-0.225903
-0.148796
-0.0575253
0.0466551
0.159681
0.273711
0.376738
0.45409
0.488736
0.450746
0.322809
-0.494154
-0.586391
-0.61522
-0.603602
-0.575727
-0.538817
-0.494981
-0.443857
-0.383193
-0.309842
-0.220691
-0.113506
0.012086
0.15338
0.303046
0.447903
0.569638
0.643963
0.62668
0.486922
-0.71266
-0.808868
-0.81972
-0.781994
-0.729673
-0.672518
-0.612725
-0.549032
-0.477733
-0.393946
-0.292626
-0.169398
-0.0215383
0.150659
0.341815
0.539182
0.721851
0.857431
0.882495
0.742912
-1.01106
-1.09896
-1.06934
-0.985004
-0.893384
-0.806091
-0.724237
-0.644599
-0.561176
-0.466727
-0.353801
-0.2154
-0.045759
0.158398
0.395582
0.656288
0.920044
1.14773
1.25319
1.14503
-1.44314
-1.48438
-1.36873
-1.20464
-1.05301
-0.92351
-0.813257
-0.71496
-0.618922
-0.514682
-0.391893
-0.24054
-0.0512587
0.183894
0.469583
0.803695
1.17216
1.53488
1.786
1.78208
-2.11593
-2.00505
-1.71818
-1.42599
-1.18837
-1.00423
-0.861224
-0.74419
-0.63754
-0.526594
-0.397648
-0.237451
-0.0326923
0.230213
0.564545
0.980997
1.48104
2.03522
2.5393
2.79755
-3.28435
-2.71009
-2.09237
-1.61306
-1.26593
-1.02117
-0.848617
-0.719485
-0.609611
-0.499334
-0.371662
-0.210402
0.00149098
0.283787
0.660923
1.16304
1.81879
2.63557
3.58898
4.49564
-5.65182
-3.61704
-2.32356
-1.61661
-1.18149
-0.907098
-0.73535
-0.620049
-0.528193
-0.436638
-0.327053
-0.182285
0.0161833
0.292198
0.680449
1.23448
2.02851
3.17518
4.98326
7.61606
-9.90329
-4.4989
-2.07783
-1.21426
-0.811055
-0.598673
-0.492611
-0.436995
-0.396688
-0.350302
-0.282292
-0.17871
-0.0236892
0.203836
0.538531
1.04569
1.85315
3.27552
6.35777
12.4294
)
;

boundaryField
{
    movingWall
    {
        type            zeroGradient;
    }
    fixedWalls
    {
        type            zeroGradient;
    }
    frontAndBack
    {
        type            empty;
    }
}


// ************************************************************************* //
