/*--------------------------------*- C++ -*----------------------------------*\
  =========                 |
  \\      /  F ield         | OpenFOAM: The Open Source CFD Toolbox
   \\    /   O peration     | Website:  https://openfoam.org
    \\  /    A nd           | Version:  8
     \\/     M anipulation  |
\*---------------------------------------------------------------------------*/
FoamFile
{
    version     2.0;
    format      ascii;
    class       volVectorField;
    location    "0.2";
    object      U;
}
// * * * * * * * * * * * * * * * * * * * * * * * * * * * * * * * * * * * * * //

dimensions      [0 1 -1 0 0 0 0];

internalField   nonuniform List<vector> 
400
(
(0.000589731 -0.00058587 0)
(0.000271339 0.000291405 0)
(-0.00292594 0.00135833 0)
(-0.00842278 0.00209709 0)
(-0.0152766 0.00246394 0)
(-0.0225783 0.00250532 0)
(-0.0295317 0.00227974 0)
(-0.0354732 0.00184107 0)
(-0.0398716 0.00123601 0)
(-0.0423253 0.000509818 0)
(-0.0425746 -0.000285849 0)
(-0.0405278 -0.00108679 0)
(-0.0362945 -0.00181381 0)
(-0.0302172 -0.00237527 0)
(-0.0228868 -0.00267493 0)
(-0.0151291 -0.00262584 0)
(-0.00794541 -0.00217066 0)
(-0.00239642 -0.00130845 0)
(0.000591526 -0.00016792 0)
(0.000672609 0.000655627 0)
(-0.000230759 -0.000333711 0)
(-0.00401518 0.00404517 0)
(-0.013871 0.00868954 0)
(-0.0282667 0.0119691 0)
(-0.0453014 0.0135937 0)
(-0.0631065 0.013647 0)
(-0.0799192 0.0123313 0)
(-0.0942004 0.00988328 0)
(-0.104696 0.00654706 0)
(-0.110468 0.00258321 0)
(-0.110935 -0.0017098 0)
(-0.105927 -0.00597839 0)
(-0.0957486 -0.00981134 0)
(-0.0812252 -0.0127585 0)
(-0.0637141 -0.0143745 0)
(-0.0450462 -0.0142892 0)
(-0.0273601 -0.0123052 0)
(-0.0128178 -0.00851813 0)
(-0.00332549 -0.00354265 0)
(-2.88137e-05 0.000671732 0)
(-0.00133865 0.0028025 0)
(-0.00912267 0.0139841 0)
(-0.0256973 0.0245456 0)
(-0.0481559 0.0319172 0)
(-0.0737598 0.0354509 0)
(-0.100018 0.0352267 0)
(-0.124552 0.031642 0)
(-0.145255 0.0252325 0)
(-0.160404 0.0166018 0)
(-0.168709 0.00642188 0)
(-0.169378 -0.00453661 0)
(-0.16219 -0.0153798 0)
(-0.147564 -0.0250954 0)
(-0.126625 -0.0326038 0)
(-0.101203 -0.0368654 0)
(-0.073763 -0.0370482 0)
(-0.0471791 -0.0327512 0)
(-0.024373 -0.024259 0)
(-0.00817292 -0.012897 0)
(-0.0010382 -0.00197189 0)
(-0.00232219 0.00868871 0)
(-0.0139224 0.0296877 0)
(-0.0370147 0.0477833 0)
(-0.0670816 0.0599921 0)
(-0.100476 0.0655028 0)
(-0.134175 0.0644856 0)
(-0.165351 0.0576039 0)
(-0.191518 0.0457696 0)
(-0.210645 0.0300361 0)
(-0.22121 0.011592 0)
(-0.222262 -0.00820192 0)
(-0.213505 -0.0277804 0)
(-0.195385 -0.0453867 0)
(-0.16916 -0.0591588 0)
(-0.136941 -0.067307 0)
(-0.101628 -0.0683918 0)
(-0.0666885 -0.0616865 0)
(-0.035784 -0.0475704 0)
(-0.0128335 -0.0279653 0)
(-0.00193522 -0.00720522 0)
(-0.00317972 0.0170257 0)
(-0.0183363 0.0507523 0)
(-0.0476652 0.0778455 0)
(-0.0849916 0.095391 0)
(-0.12571 0.102726 0)
(-0.166285 0.1003 0)
(-0.20353 0.0891632 0)
(-0.234693 0.0706799 0)
(-0.257541 0.046411 0)
(-0.270393 0.018109 0)
(-0.27216 -0.0122282 0)
(-0.262428 -0.0423095 0)
(-0.241564 -0.0695599 0)
(-0.210821 -0.0912288 0)
(-0.172431 -0.104631 0)
(-0.129609 -0.107532 0)
(-0.0863798 -0.098662 0)
(-0.0472266 -0.0782618 0)
(-0.0173645 -0.0486087 0)
(-0.00274187 -0.0148151 0)
(-0.00396262 0.027603 0)
(-0.0224826 0.0769223 0)
(-0.0577946 0.114499 0)
(-0.102083 0.137858 0)
(-0.149766 0.146816 0)
(-0.196818 0.14235 0)
(-0.239755 0.126049 0)
(-0.275649 0.0998255 0)
(-0.302156 0.0657872 0)
(-0.317486 0.0262607 0)
(-0.32042 -0.0161243 0)
(-0.310376 -0.0583502 0)
(-0.287534 -0.0969925 0)
(-0.252991 -0.128324 0)
(-0.208941 -0.148595 0)
(-0.158798 -0.154523 0)
(-0.107112 -0.143968 0)
(-0.0592961 -0.116687 0)
(-0.022091 -0.0750238 0)
(-0.0035545 -0.0247619 0)
(-0.0047175 0.040304 0)
(-0.0264955 0.108003 0)
(-0.0675922 0.15751 0)
(-0.118548 0.187109 0)
(-0.172807 0.197446 0)
(-0.22589 0.190304 0)
(-0.274099 0.168006 0)
(-0.314432 0.133105 0)
(-0.344525 0.088287 0)
(-0.362551 0.0364221 0)
(-0.367177 -0.0192856 0)
(-0.357609 -0.07515 0)
(-0.333726 -0.126918 0)
(-0.296297 -0.169826 0)
(-0.247279 -0.198882 0)
(-0.190107 -0.20943 0)
(-0.129774 -0.198018 0)
(-0.0726898 -0.163433 0)
(-0.0273979 -0.107707 0)
(-0.00447818 -0.0372259 0)
(-0.0054828 0.0550912 0)
(-0.0304946 0.14387 0)
(-0.0772177 0.206635 0)
(-0.134484 0.242767 0)
(-0.194761 0.254131 0)
(-0.25319 0.243646 0)
(-0.305978 0.214589 0)
(-0.350192 0.170265 0)
(-0.383585 0.113938 0)
(-0.404398 0.048959 0)
(-0.411232 -0.0210128 0)
(-0.403061 -0.0917516 0)
(-0.379355 -0.15827 0)
(-0.340359 -0.214769 0)
(-0.287525 -0.254851 0)
(-0.224021 -0.272114 0)
(-0.155075 -0.261218 0)
(-0.0880754 -0.219294 0)
(-0.0336802 -0.147481 0)
(-0.00562109 -0.0526137 0)
(-0.006297 0.0719941 0)
(-0.0345991 0.184466 0)
(-0.0868052 0.261599 0)
(-0.149873 0.304283 0)
(-0.215287 0.316097 0)
(-0.277924 0.301499 0)
(-0.334085 0.264977 0)
(-0.381113 0.210699 0)
(-0.417076 0.142501 0)
(-0.440442 0.0640974 0)
(-0.449859 -0.020578 0)
(-0.444091 -0.106977 0)
(-0.42212 -0.189575 0)
(-0.383454 -0.261642 0)
(-0.328696 -0.315285 0)
(-0.260315 -0.341976 0)
(-0.18336 -0.333766 0)
(-0.10601 -0.285158 0)
(-0.041335 -0.19547 0)
(-0.00710228 -0.0715583 0)
(-0.00721862 0.0911196 0)
(-0.0389812 0.229799 0)
(-0.0965262 0.322029 0)
(-0.164629 0.370804 0)
(-0.233776 0.382085 0)
(-0.298782 0.362382 0)
(-0.356321 0.317703 0)
(-0.404306 0.253198 0)
(-0.441398 0.173236 0)
(-0.466528 0.0817365 0)
(-0.47857 -0.0173437 0)
(-0.476177 -0.119451 0)
(-0.457822 -0.218859 0)
(-0.422084 -0.308168 0)
(-0.368317 -0.378052 0)
(-0.297689 -0.417553 0)
(-0.214384 -0.41528 0)
(-0.126863 -0.36178 0)
(-0.0507788 -0.253025 0)
(-0.00907098 -0.0949299 0)
(-0.00836222 0.112709 0)
(-0.0439599 0.279977 0)
(-0.106693 0.387392 0)
(-0.178648 0.440996 0)
(-0.249341 0.450094 0)
(-0.31386 0.423923 0)
(-0.369675 0.370363 0)
(-0.415672 0.295657 0)
(-0.451462 0.204635 0)
(-0.476749 0.101213 0)
(-0.490886 -0.0109496 0)
(-0.492609 -0.12771 0)
(-0.479958 -0.243626 0)
(-0.450478 -0.351111 0)
(-0.401877 -0.439734 0)
(-0.333284 -0.496005 0)
(-0.246979 -0.504278 0)
(-0.1507 -0.449394 0)
(-0.0624781 -0.321596 0)
(-0.0117402 -0.123876 0)
(-0.00996216 0.137275 0)
(-0.050144 0.335294 0)
(-0.117878 0.456893 0)
(-0.191818 0.512785 0)
(-0.260689 0.517054 0)
(-0.320451 0.482514 0)
(-0.369987 0.419297 0)
(-0.40968 0.334793 0)
(-0.44051 0.234156 0)
(-0.463297 0.121043 0)
(-0.478183 -0.0015544 0)
(-0.484268 -0.130398 0)
(-0.479379 -0.260956 0)
(-0.460085 -0.386196 0)
(-0.422188 -0.495274 0)
(-0.362002 -0.572509 0)
(-0.278527 -0.597424 0)
(-0.177052 -0.547113 0)
(-0.076982 -0.402518 0)
(-0.0154446 -0.159912 0)
(-0.0124859 0.165874 0)
(-0.0586334 0.396346 0)
(-0.130964 0.529254 0)
(-0.203803 0.582933 0)
(-0.265691 0.578352 0)
(-0.314513 0.532915 0)
(-0.35144 0.459285 0)
(-0.378969 0.365914 0)
(-0.399858 0.258033 0)
(-0.41635 0.138719 0)
(-0.429663 0.00991162 0)
(-0.43959 -0.126555 0)
(-0.444119 -0.267767 0)
(-0.439168 -0.408203 0)
(-0.418687 -0.537771 0)
(-0.375615 -0.639613 0)
(-0.304116 -0.68854 0)
(-0.204445 -0.651961 0)
(-0.0949222 -0.496596 0)
(-0.0207335 -0.205093 0)
(-0.0168245 0.200593 0)
(-0.0712464 0.464068 0)
(-0.146919 0.602166 0)
(-0.213259 0.64627 0)
(-0.260244 0.627177 0)
(-0.289455 0.56782 0)
(-0.305498 0.483354 0)
(-0.313576 0.382892 0)
(-0.318476 0.271294 0)
(-0.323977 0.150675 0)
(-0.332506 0.0215849 0)
(-0.344824 -0.115953 0)
(-0.35957 -0.261273 0)
(-0.372664 -0.411411 0)
(-0.376812 -0.558605 0)
(-0.361632 -0.68676 0)
(-0.31519 -0.767414 0)
(-0.229424 -0.757367 0)
(-0.116832 -0.603236 0)
(-0.0284882 -0.262253 0)
(-0.0245355 0.245289 0)
(-0.0905234 0.539354 0)
(-0.165627 0.671007 0)
(-0.215609 0.694398 0)
(-0.235637 0.653678 0)
(-0.233672 0.57759 0)
(-0.218937 0.482957 0)
(-0.199597 0.37859 0)
(-0.182288 0.268254 0)
(-0.172015 0.152664 0)
(-0.17221 0.0307665 0)
(-0.184667 -0.0993751 0)
(-0.209141 -0.239663 0)
(-0.242517 -0.390526 0)
(-0.2776 -0.548273 0)
(-0.30191 -0.70044 0)
(-0.297364 -0.818725 0)
(-0.24445 -0.85099 0)
(-0.142263 -0.718655 0)
(-0.0398919 -0.33516 0)
(-0.0377809 0.30675 0)
(-0.118406 0.6214 0)
(-0.181949 0.726019 0)
(-0.197608 0.71361 0)
(-0.173186 0.644188 0)
(-0.126134 0.550565 0)
(-0.0706785 0.448961 0)
(-0.017236 0.346145 0)
(0.026741 0.243773 0)
(0.055991 0.140768 0)
(0.0667923 0.034505 0)
(0.0566412 -0.0786406 0)
(0.0244228 -0.202876 0)
(-0.0287587 -0.342187 0)
(-0.0978621 -0.498245 0)
(-0.171173 -0.665526 0)
(-0.226968 -0.82162 0)
(-0.233487 -0.911917 0)
(-0.166732 -0.832627 0)
(-0.0555198 -0.4287 0)
(-0.0574177 0.397176 0)
(-0.150147 0.702531 0)
(-0.17451 0.745653 0)
(-0.125346 0.681123 0)
(-0.034566 0.580586 0)
(0.0702073 0.474398 0)
(0.172097 0.373849 0)
(0.261059 0.281323 0)
(0.331067 0.195405 0)
(0.378311 0.113139 0)
(0.399993 0.0307716 0)
(0.393659 -0.0561898 0)
(0.357036 -0.153194 0)
(0.288511 -0.266781 0)
(0.188741 -0.403846 0)
(0.064289 -0.568161 0)
(-0.0659732 -0.750396 0)
(-0.163666 -0.907039 0)
(-0.173848 -0.922483 0)
(-0.0714314 -0.549606 0)
(-0.0724724 0.531374 0)
(-0.153252 0.752398 0)
(-0.0778957 0.68544 0)
(0.0786501 0.562789 0)
(0.252396 0.443522 0)
(0.41537 0.341218 0)
(0.55615 0.256797 0)
(0.670114 0.186733 0)
(0.755797 0.126612 0)
(0.812783 0.0723002 0)
(0.840457 0.0199344 0)
(0.837348 -0.0345397 0)
(0.800734 -0.0960451 0)
(0.726502 -0.171306 0)
(0.609766 -0.269781 0)
(0.447564 -0.403357 0)
(0.245133 -0.580844 0)
(0.0294687 -0.789143 0)
(-0.117231 -0.937444 0)
(-0.0653418 -0.693535 0)
(0.00362973 0.648059 0)
(0.0157023 0.67794 0)
(0.280625 0.491727 0)
(0.567584 0.344788 0)
(0.803769 0.242609 0)
(0.990294 0.170975 0)
(1.13485 0.120099 0)
(1.24333 0.0827009 0)
(1.32056 0.0535487 0)
(1.37003 0.0290319 0)
(1.39351 0.0064841 0)
(1.39093 -0.0164706 0)
(1.36012 -0.0426442 0)
(1.29614 -0.0762227 0)
(1.19038 -0.124424 0)
(1.03003 -0.20007 0)
(0.797026 -0.324083 0)
(0.475133 -0.521334 0)
(0.137832 -0.771155 0)
(0.0632435 -0.750888 0)
(0.704726 0.34477 0)
(0.92013 0.30343 0)
(1.29264 0.185995 0)
(1.57257 0.111067 0)
(1.7449 0.0677402 0)
(1.85629 0.0419901 0)
(1.93214 0.0263096 0)
(1.98382 0.0163558 0)
(2.01772 0.00954604 0)
(2.03765 0.00438227 0)
(2.04552 -4.75669e-05 0)
(2.04184 -0.0044062 0)
(2.02571 -0.00943205 0)
(1.9944 -0.0162613 0)
(1.942 -0.0271569 0)
(1.85661 -0.0470378 0)
(1.71086 -0.0865601 0)
(1.44188 -0.166465 0)
(1.03091 -0.304791 0)
(0.757506 -0.363533 0)
)
;

boundaryField
{
    movingWall
    {
        type            fixedValue;
        value           uniform (2.4 0 0);
    }
    fixedWalls
    {
        type            noSlip;
    }
    frontAndBack
    {
        type            empty;
    }
}


// ************************************************************************* //
