/*--------------------------------*- C++ -*----------------------------------*\
  =========                 |
  \\      /  F ield         | OpenFOAM: The Open Source CFD Toolbox
   \\    /   O peration     | Website:  https://openfoam.org
    \\  /    A nd           | Version:  8
     \\/     M anipulation  |
\*---------------------------------------------------------------------------*/
FoamFile
{
    version     2.0;
    format      ascii;
    class       surfaceScalarField;
    location    "0.1";
    object      phi;
}
// * * * * * * * * * * * * * * * * * * * * * * * * * * * * * * * * * * * * * //

dimensions      [0 3 -1 0 0 0 0];

internalField   nonuniform List<scalar> 
760
(
3.17544e-08
-3.1756e-08
-5.72289e-08
8.89823e-08
-2.74895e-07
2.17664e-07
-5.81419e-07
3.06523e-07
-9.31397e-07
3.49977e-07
-1.28319e-06
3.51793e-07
-1.60121e-06
3.18022e-07
-1.85632e-06
2.55111e-07
-2.02569e-06
1.69369e-07
-2.09304e-06
6.73507e-08
-2.04959e-06
-4.3447e-08
-1.89556e-06
-1.54032e-07
-1.64179e-06
-2.53773e-07
-1.31097e-06
-3.30826e-07
-9.37736e-07
-3.73229e-07
-5.67031e-07
-3.70705e-07
-2.49827e-07
-3.17205e-07
-3.58783e-08
-2.13949e-07
3.99584e-08
-7.5836e-08
3.9958e-08
-8.47439e-08
5.29892e-08
-4.34441e-07
4.3868e-07
-1.03284e-06
8.16065e-07
-1.80621e-06
1.07989e-06
-2.66393e-06
1.2077e-06
-3.51599e-06
1.20386e-06
-4.28133e-06
1.08336e-06
-4.89158e-06
8.65363e-07
-5.29297e-06
5.70761e-07
-5.44809e-06
2.22466e-07
-5.33824e-06
-1.53298e-07
-4.96635e-06
-5.25914e-07
-4.35976e-06
-8.60363e-07
-3.57169e-06
-1.11889e-06
-2.68022e-06
-1.2647e-06
-1.78317e-06
-1.26776e-06
-9.87548e-07
-1.11283e-06
-3.92787e-07
-8.08708e-07
-6.60649e-08
-4.02557e-07
-2.61082e-08
-2.23793e-07
2.76784e-07
-8.5455e-07
1.06943e-06
-1.81511e-06
1.77663e-06
-2.99501e-06
2.25979e-06
-4.27057e-06
2.48325e-06
-5.52012e-06
2.45341e-06
-6.63328e-06
2.19652e-06
-7.51622e-06
1.7483e-06
-8.09494e-06
1.14948e-06
-8.31816e-06
4.45688e-07
-8.16061e-06
-3.10852e-07
-7.62666e-06
-1.05986e-06
-6.7537e-06
-1.73332e-06
-5.61382e-06
-2.25878e-06
-4.31225e-06
-2.56626e-06
-2.98073e-06
-2.59929e-06
-1.76425e-06
-2.3293e-06
-8.01078e-07
-1.77188e-06
-1.97123e-07
-1.00651e-06
-2.23231e-07
-3.5075e-07
6.27534e-07
-1.25432e-06
1.973e-06
-2.56289e-06
3.08521e-06
-4.1207e-06
3.81759e-06
-5.77158e-06
4.13414e-06
-7.36855e-06
4.05038e-06
-8.78055e-06
3.60853e-06
-9.89686e-06
2.86461e-06
-1.06301e-05
1.88272e-06
-1.09193e-05
7.3485e-07
-1.07333e-05
-4.96867e-07
-1.00751e-05
-1.71804e-06
-8.98597e-06
-2.82243e-06
-7.54817e-06
-3.69657e-06
-5.88445e-06
-4.22999e-06
-4.15221e-06
-4.33152e-06
-2.5306e-06
-3.95092e-06
-1.20025e-06
-3.10223e-06
-3.18744e-07
-1.88802e-06
-5.41973e-07
-4.66037e-07
1.09357e-06
-1.62939e-06
3.13635e-06
-3.2725e-06
4.72832e-06
-5.19031e-06
5.7354e-06
-7.19317e-06
6.13701e-06
-9.11136e-06
5.96857e-06
-1.07981e-05
5.29522e-06
-1.2131e-05
4.19753e-06
-1.30137e-05
2.76549e-06
-1.33778e-05
1.09893e-06
-1.31857e-05
-6.88963e-07
-1.24356e-05
-2.46821e-06
-1.11664e-05
-4.09158e-06
-9.46336e-06
-5.39962e-06
-7.45996e-06
-6.23339e-06
-5.33555e-06
-6.45594e-06
-3.30463e-06
-5.98183e-06
-1.59755e-06
-4.80932e-06
-4.34458e-07
-3.0511e-06
-9.7643e-07
-5.74247e-07
1.66782e-06
-1.98712e-06
4.54922e-06
-3.95351e-06
6.6947e-06
-6.21765e-06
7.99955e-06
-8.55611e-06
8.47546e-06
-1.07784e-05
8.19085e-06
-1.27256e-05
7.24244e-06
-1.42682e-05
5.74012e-06
-1.53042e-05
3.80152e-06
-1.57592e-05
1.55388e-06
-1.55881e-05
-8.60064e-07
-1.47802e-05
-3.27607e-06
-1.33662e-05
-5.50557e-06
-1.14265e-05
-7.33936e-06
-9.09856e-06
-8.56131e-06
-6.58018e-06
-8.97431e-06
-4.12337e-06
-8.43863e-06
-2.01651e-06
-6.91618e-06
-5.54323e-07
-4.51329e-06
-1.53075e-06
-6.79699e-07
2.34752e-06
-2.33605e-06
6.20557e-06
-4.61603e-06
8.97468e-06
-7.21223e-06
1.05957e-05
-9.868e-06
1.11312e-05
-1.2375e-05
1.06978e-05
-1.45666e-05
9.43406e-06
-1.63109e-05
7.4844e-06
-1.75043e-05
4.99496e-06
-1.80685e-05
2.11809e-06
-1.79504e-05
-9.78175e-07
-1.71266e-05
-4.09991e-06
-1.56122e-05
-7.01994e-06
-1.34738e-05
-9.47777e-06
-1.08437e-05
-1.11915e-05
-7.93152e-06
-1.18865e-05
-5.02686e-06
-1.13433e-05
-2.48451e-06
-9.45853e-06
-6.89362e-07
-6.30844e-06
-2.22012e-06
-7.85936e-07
3.13345e-06
-2.68328e-06
8.10291e-06
-5.26652e-06
1.15579e-05
-8.17447e-06
1.35037e-05
-1.11189e-05
1.40757e-05
-1.38782e-05
1.34571e-05
-1.62846e-05
1.18405e-05
-1.82106e-05
9.41039e-06
-1.95571e-05
6.34139e-06
-2.02455e-05
2.80658e-06
-2.02156e-05
-1.00809e-06
-1.94281e-05
-4.88746e-06
-1.78751e-05
-8.57292e-06
-1.55978e-05
-1.17551e-05
-1.27095e-05
-1.40798e-05
-9.41962e-06
-1.51763e-05
-6.04989e-06
-1.4713e-05
-3.02837e-06
-1.24801e-05
-8.50655e-07
-8.48615e-06
-3.07077e-06
-8.9629e-07
4.02974e-06
-3.03501e-06
1.02416e-05
-5.90746e-06
1.44304e-05
-9.09453e-06
1.66908e-05
-1.22792e-05
1.72603e-05
-1.5234e-05
1.64119e-05
-1.77998e-05
1.44063e-05
-1.98635e-05
1.14741e-05
-2.13393e-05
7.81722e-06
-2.21556e-05
3.62289e-06
-2.22479e-05
-9.15741e-07
-2.15599e-05
-5.57549e-06
-2.00534e-05
-1.00794e-05
-1.77304e-05
-1.40781e-05
-1.46656e-05
-1.71446e-05
-1.10476e-05
-1.87943e-05
-7.21552e-06
-1.85451e-05
-3.67233e-06
-1.60232e-05
-1.0495e-06
-1.1109e-05
-4.12027e-06
-1.01556e-06
5.0453e-06
-3.39947e-06
1.26255e-05
-6.54001e-06
1.75709e-05
-9.95328e-06
2.0104e-05
-1.32984e-05
2.06054e-05
-1.63541e-05
1.94676e-05
-1.8984e-05
1.70362e-05
-2.11038e-05
1.35938e-05
-2.26537e-05
9.36721e-06
-2.35794e-05
4.54859e-06
-2.38193e-05
-6.75859e-07
-2.33017e-05
-6.09307e-06
-2.19531e-05
-1.1428e-05
-1.97212e-05
-1.631e-05
-1.66175e-05
-2.02483e-05
-1.27772e-05
-2.26346e-05
-8.52764e-06
-2.27947e-05
-4.43679e-06
-2.01141e-05
-1.29836e-06
-1.42474e-05
-5.41864e-06
-1.153e-06
6.1983e-06
-3.79208e-06
1.52646e-05
-7.16814e-06
2.0947e-05
-1.07234e-05
2.36593e-05
-1.41034e-05
2.39854e-05
-1.71115e-05
2.24758e-05
-1.9655e-05
1.95797e-05
-2.1697e-05
1.56359e-05
-2.32208e-05
1.0891e-05
-2.4203e-05
5.53075e-06
-2.4596e-05
-2.82783e-07
-2.43199e-05
-6.36921e-06
-2.32646e-05
-1.24833e-05
-2.13115e-05
-1.82631e-05
-1.83799e-05
-2.31799e-05
-1.45077e-05
-2.65068e-05
-9.95976e-06
-2.73427e-05
-5.33642e-06
-2.47374e-05
-1.61267e-06
-1.79712e-05
-7.0313e-06
-1.32732e-06
7.52562e-06
-4.24238e-06
1.81797e-05
-7.80188e-06
2.45065e-05
-1.13666e-05
2.72241e-05
-1.45897e-05
2.72085e-05
-1.73295e-05
2.52156e-05
-1.95648e-05
2.18149e-05
-2.133e-05
1.74011e-05
-2.26703e-05
1.22312e-05
-2.36095e-05
6.47001e-06
-2.41291e-05
2.36792e-07
-2.41528e-05
-6.34549e-06
-2.35415e-05
-1.30946e-05
-2.21046e-05
-1.96999e-05
-1.9644e-05
-2.56406e-05
-1.60459e-05
-3.01048e-05
-1.1436e-05
-3.19526e-05
-6.37564e-06
-2.97978e-05
-2.01352e-06
-2.23333e-05
-9.04482e-06
-1.57474e-06
9.10036e-06
-4.80113e-06
2.14061e-05
-8.45383e-06
2.81592e-05
-1.18178e-05
3.05881e-05
-1.45983e-05
2.99889e-05
-1.67557e-05
2.73729e-05
-1.83775e-05
2.34367e-05
-1.9595e-05
1.86187e-05
-2.05328e-05
1.3169e-05
-2.12771e-05
7.21427e-06
-2.18532e-05
8.12936e-07
-2.22065e-05
-5.99221e-06
-2.21859e-05
-1.31153e-05
-2.15389e-05
-2.03469e-05
-1.99368e-05
-2.72427e-05
-1.7062e-05
-3.29796e-05
-1.2798e-05
-3.62166e-05
-7.53726e-06
-3.50586e-05
-2.53175e-06
-2.73388e-05
-1.15766e-05
-1.96141e-06
1.10618e-05
-5.54155e-06
2.49862e-05
-9.11364e-06
3.17313e-05
-1.19368e-05
3.34112e-05
-1.38566e-05
3.19087e-05
-1.50062e-05
2.85225e-05
-1.56245e-05
2.40551e-05
-1.59607e-05
1.89548e-05
-1.62278e-05
1.34361e-05
-1.65801e-05
7.56657e-06
-1.70973e-05
1.33018e-06
-1.77652e-05
-5.32429e-06
-1.84495e-05
-1.2431e-05
-1.88674e-05
-1.9929e-05
-1.85767e-05
-2.75334e-05
-1.70264e-05
-3.45299e-05
-1.37452e-05
-3.94977e-05
-8.75361e-06
-4.00501e-05
-3.21114e-06
-3.28813e-05
-1.47877e-05
-2.59686e-06
1.36586e-05
-6.53192e-06
2.89213e-05
-9.66241e-06
3.48618e-05
-1.13868e-05
3.51356e-05
-1.1852e-05
3.23739e-05
-1.14553e-05
2.81259e-05
-1.06226e-05
2.32223e-05
-9.72226e-06
1.80545e-05
-9.04387e-06
1.27578e-05
-8.79645e-06
7.31915e-06
-9.11052e-06
1.64426e-06
-1.00256e-05
-4.40923e-06
-1.14596e-05
-1.0997e-05
-1.31574e-05
-1.82312e-05
-1.46285e-05
-2.60623e-05
-1.5119e-05
-3.40394e-05
-1.37251e-05
-4.08916e-05
-9.8309e-06
-4.39444e-05
-4.09793e-06
-3.86142e-05
-1.88856e-05
-3.6204e-06
1.7279e-05
-7.70337e-06
3.30042e-05
-9.63429e-06
3.67927e-05
-9.36413e-06
3.48655e-05
-7.58791e-06
3.05977e-05
-5.04762e-06
2.55856e-05
-2.3477e-06
2.05224e-05
6.7178e-08
1.56396e-05
1.88369e-06
1.09412e-05
2.87765e-06
6.32519e-06
2.89425e-06
1.62765e-06
1.84256e-06
-3.35754e-06
-2.79803e-07
-8.87459e-06
-3.32254e-06
-1.51885e-05
-6.87099e-06
-2.25138e-05
-1.01053e-05
-3.08051e-05
-1.17323e-05
-3.92647e-05
-1.0256e-05
-4.54207e-05
-5.16793e-06
-4.37023e-05
-2.40536e-05
-5.06213e-06
2.23412e-05
-8.39883e-06
3.63409e-05
-7.62594e-06
3.60198e-05
-4.0569e-06
3.12964e-05
8.21729e-07
2.5719e-05
5.96431e-06
2.0443e-05
1.07097e-05
1.57771e-05
1.46601e-05
1.16891e-05
1.75732e-05
8.02817e-06
1.92865e-05
4.61187e-06
1.96694e-05
1.2448e-06
1.86032e-05
-2.2913e-06
1.59889e-05
-6.26035e-06
1.17992e-05
-1.09988e-05
6.20626e-06
-1.69209e-05
-1.76904e-07
-2.44219e-05
-5.9625e-06
-3.34791e-05
-8.77239e-06
-4.26108e-05
-6.08741e-06
-4.63873e-05
-3.0141e-05
-6.29498e-06
2.86361e-05
-6.06791e-06
3.61138e-05
8.81435e-09
2.99431e-05
8.28513e-06
2.30201e-05
1.66808e-05
1.73233e-05
2.42474e-05
1.28764e-05
3.05843e-05
9.44015e-06
3.55472e-05
6.72625e-06
3.90938e-05
4.48163e-06
4.11997e-05
2.50589e-06
4.18133e-05
6.31215e-07
4.08299e-05
-1.30792e-06
3.80781e-05
-3.50848e-06
3.33302e-05
-6.25091e-06
2.6376e-05
-9.96673e-06
1.72517e-05
-1.52975e-05
6.77504e-06
-2.30025e-05
-2.50421e-06
-3.33315e-05
-5.62467e-06
-4.32668e-05
-3.57656e-05
-2.85659e-06
3.14927e-05
7.65043e-06
2.56068e-05
2.16913e-05
1.59022e-05
3.44414e-05
1.027e-05
4.49101e-05
6.85461e-06
5.31499e-05
4.63661e-06
5.94363e-05
3.15372e-06
6.40472e-05
2.11541e-06
6.71951e-05
1.33371e-06
6.90102e-05
6.90836e-07
6.95337e-05
1.07652e-07
6.87117e-05
-4.85938e-07
6.63676e-05
-1.16438e-06
6.21658e-05
-2.04903e-06
5.55599e-05
-3.36086e-06
4.58018e-05
-5.53946e-06
3.22513e-05
-9.45196e-06
1.55601e-05
-1.66403e-05
8.83665e-07
-2.85904e-05
-3.4882e-05
3.14927e-05
5.70996e-05
7.30018e-05
8.32718e-05
9.01264e-05
9.4763e-05
9.79167e-05
0.000100032
0.000101366
0.000102057
0.000102164
0.000101678
0.000100514
9.8465e-05
9.51041e-05
8.95647e-05
8.01127e-05
6.34724e-05
3.4882e-05
)
;

boundaryField
{
    movingWall
    {
        type            calculated;
        value           uniform 0;
    }
    fixedWalls
    {
        type            calculated;
        value           uniform 0;
    }
    frontAndBack
    {
        type            empty;
        value           nonuniform List<scalar> 0();
    }
}


// ************************************************************************* //
