/*--------------------------------*- C++ -*----------------------------------*\
  =========                 |
  \\      /  F ield         | OpenFOAM: The Open Source CFD Toolbox
   \\    /   O peration     | Website:  https://openfoam.org
    \\  /    A nd           | Version:  8
     \\/     M anipulation  |
\*---------------------------------------------------------------------------*/
FoamFile
{
    version     2.0;
    format      ascii;
    class       surfaceScalarField;
    location    "0.5";
    object      phi;
}
// * * * * * * * * * * * * * * * * * * * * * * * * * * * * * * * * * * * * * //

dimensions      [0 3 -1 0 0 0 0];

internalField   nonuniform List<scalar> 
760
(
3.48616e-08
-3.49038e-08
-6.315e-08
9.80115e-08
-3.02757e-07
2.39607e-07
-6.39891e-07
3.37135e-07
-1.02472e-06
3.84833e-07
-1.41166e-06
3.86939e-07
-1.76177e-06
3.50103e-07
-2.04304e-06
2.8127e-07
-2.23021e-06
1.87169e-07
-2.30504e-06
7.48373e-08
-2.25751e-06
-4.7533e-08
-2.08756e-06
-1.69948e-07
-1.80709e-06
-2.80471e-07
-1.44134e-06
-3.65754e-07
-1.02898e-06
-4.1236e-07
-6.20098e-07
-4.08881e-07
-2.71253e-07
-3.48846e-07
-3.71451e-08
-2.34109e-07
4.46815e-08
-8.18269e-08
4.46819e-08
-9.42399e-08
5.93361e-08
-4.80483e-07
4.84255e-07
-1.14011e-06
8.99232e-07
-1.99187e-06
1.18889e-06
-2.93617e-06
1.32914e-06
-3.87434e-06
1.32511e-06
-4.71746e-06
1.19322e-06
-5.39032e-06
9.54129e-07
-5.83341e-06
6.30265e-07
-6.00498e-06
2.46409e-07
-5.88384e-06
-1.68681e-07
-5.4728e-06
-5.80989e-07
-4.80199e-06
-9.51282e-07
-3.9306e-06
-1.23714e-06
-2.94562e-06
-1.39733e-06
-1.95591e-06
-1.39859e-06
-1.08008e-06
-1.22468e-06
-4.27506e-07
-8.86684e-07
-7.08963e-08
-4.38436e-07
-2.62147e-08
-2.47957e-07
3.07293e-07
-9.44657e-07
1.18095e-06
-2.00373e-06
1.95831e-06
-3.30337e-06
2.48853e-06
-4.70779e-06
2.73355e-06
-6.08362e-06
2.70094e-06
-7.30977e-06
2.41938e-06
-8.283e-06
1.92736e-06
-8.92146e-06
1.26872e-06
-9.168e-06
4.92952e-07
-8.99406e-06
-3.42621e-07
-8.404e-06
-1.17106e-06
-7.43901e-06
-1.91627e-06
-6.17916e-06
-2.49699e-06
-4.74156e-06
-2.83494e-06
-3.27265e-06
-2.8675e-06
-1.93315e-06
-2.56418e-06
-8.75323e-07
-1.94451e-06
-2.14391e-07
-1.09937e-06
-2.40607e-07
-3.88107e-07
6.954e-07
-1.38497e-06
2.17782e-06
-2.82624e-06
3.39958e-06
-4.5404e-06
4.20269e-06
-6.35633e-06
4.54948e-06
-8.11316e-06
4.45777e-06
-9.66734e-06
3.97355e-06
-1.08971e-05
3.15713e-06
-1.17059e-05
2.07749e-06
-1.20257e-05
8.12749e-07
-1.18214e-05
-5.46937e-07
-1.10956e-05
-1.89686e-06
-9.89352e-06
-3.11831e-06
-8.3063e-06
-4.0842e-06
-6.47026e-06
-4.67098e-06
-4.56025e-06
-4.77751e-06
-2.77483e-06
-4.3496e-06
-1.31323e-06
-3.4061e-06
-3.476e-07
-2.065e-06
-5.88207e-07
-5.14559e-07
1.20996e-06
-1.7952e-06
3.45846e-06
-3.60107e-06
5.20545e-06
-5.7071e-06
6.30871e-06
-7.90613e-06
6.74851e-06
-1.0013e-05
6.56464e-06
-1.18672e-05
5.82779e-06
-1.33346e-05
4.6245e-06
-1.43086e-05
3.05152e-06
-1.47129e-05
1.217e-06
-1.45048e-05
-7.54993e-07
-1.36812e-05
-2.72045e-06
-1.22845e-05
-4.5151e-06
-1.04082e-05
-5.96048e-06
-8.20031e-06
-6.87885e-06
-5.85982e-06
-7.118e-06
-3.62455e-06
-6.58487e-06
-1.74891e-06
-5.28174e-06
-4.74235e-07
-3.33968e-06
-1.06244e-06
-6.31926e-07
1.84188e-06
-2.18211e-06
5.00865e-06
-4.33644e-06
7.35978e-06
-6.81553e-06
8.7878e-06
-9.37637e-06
9.30934e-06
-1.1812e-05
9.00027e-06
-1.39493e-05
7.96511e-06
-1.56464e-05
6.32159e-06
-1.67906e-05
4.19573e-06
-1.72987e-05
1.72504e-06
-1.71192e-05
-9.34417e-07
-1.62387e-05
-3.60102e-06
-1.46891e-05
-6.06467e-06
-1.25581e-05
-8.09144e-06
-9.99745e-06
-9.43953e-06
-7.22604e-06
-9.8894e-06
-4.52337e-06
-9.28754e-06
-2.20848e-06
-7.59663e-06
-6.05427e-07
-4.94273e-06
-1.66787e-06
-7.44553e-07
2.58644e-06
-2.55394e-06
6.81803e-06
-5.04167e-06
9.84751e-06
-7.87386e-06
1.162e-05
-1.07729e-05
1.22084e-05
-1.35135e-05
1.17409e-05
-1.5915e-05
1.03666e-05
-1.7833e-05
8.23957e-06
-1.9153e-05
5.51578e-06
-1.97871e-05
2.35916e-06
-1.96744e-05
-1.04716e-06
-1.87861e-05
-4.48928e-06
-1.71363e-05
-7.71451e-06
-1.4796e-05
-1.04318e-05
-1.19098e-05
-1.23257e-05
-8.70957e-06
-1.30897e-05
-5.51609e-06
-1.2481e-05
-2.72258e-06
-1.03901e-05
-7.53509e-07
-6.9118e-06
-2.42138e-06
-8.56002e-07
3.44244e-06
-2.91769e-06
8.87972e-06
-5.72269e-06
1.26525e-05
-8.88138e-06
1.47787e-05
-1.20839e-05
1.54109e-05
-1.50918e-05
1.47489e-05
-1.7724e-05
1.29988e-05
-1.98411e-05
1.03566e-05
-2.13331e-05
7.00786e-06
-2.21118e-05
3.13777e-06
-2.2107e-05
-1.05187e-06
-2.12719e-05
-5.32447e-06
-1.95934e-05
-9.39297e-06
-1.71132e-05
-1.2912e-05
-1.39533e-05
-1.54855e-05
-1.03442e-05
-1.66988e-05
-6.64189e-06
-1.61833e-05
-3.32142e-06
-1.37106e-05
-9.30949e-07
-9.30227e-06
-3.35233e-06
-9.69706e-07
4.41215e-06
-3.27978e-06
1.11898e-05
-6.38206e-06
1.57548e-05
-9.82764e-06
1.82242e-05
-1.32778e-05
1.88611e-05
-1.64894e-05
1.79605e-05
-1.9291e-05
1.58004e-05
-2.15591e-05
1.26247e-05
-2.31981e-05
8.64686e-06
-2.41263e-05
4.06599e-06
-2.42688e-05
-9.09396e-07
-2.35585e-05
-6.03476e-06
-2.1948e-05
-1.10034e-05
-1.94339e-05
-1.54261e-05
-1.60939e-05
-1.88255e-05
-1.21333e-05
-2.06594e-05
-7.92663e-06
-2.039e-05
-4.03227e-06
-1.7605e-05
-1.15046e-06
-1.21841e-05
-4.50278e-06
-1.09084e-06
5.50298e-06
-3.64942e-06
1.37484e-05
-7.02206e-06
1.91274e-05
-1.0694e-05
2.18962e-05
-1.43034e-05
2.24704e-05
-1.76147e-05
2.12718e-05
-2.04817e-05
1.86673e-05
-2.28116e-05
1.49546e-05
-2.4537e-05
1.03723e-05
-2.55944e-05
5.12343e-06
-2.59117e-05
-5.9211e-07
-2.54046e-05
-6.54187e-06
-2.39858e-05
-1.24222e-05
-2.15908e-05
-1.78211e-05
-1.82254e-05
-2.21909e-05
-1.40334e-05
-2.48514e-05
-9.37416e-06
-2.50492e-05
-4.87779e-06
-2.21013e-05
-1.42601e-06
-1.56359e-05
-5.92879e-06
-1.22962e-06
6.7326e-06
-4.04441e-06
1.65632e-05
-7.6497e-06
2.27327e-05
-1.14557e-05
2.57022e-05
-1.50879e-05
2.61027e-05
-1.83383e-05
2.45222e-05
-2.1107e-05
2.1436e-05
-2.33526e-05
1.72002e-05
-2.50534e-05
1.20731e-05
-2.61797e-05
6.24978e-06
-2.6675e-05
-9.68173e-08
-2.64461e-05
-6.77078e-06
-2.5366e-05
-1.35024e-05
-2.32964e-05
-1.98907e-05
-2.014e-05
-2.53473e-05
-1.593e-05
-2.90614e-05
-1.09533e-05
-3.00259e-05
-5.87363e-06
-2.7181e-05
-1.77465e-06
-1.97348e-05
-7.70344e-06
-1.40674e-06
8.13934e-06
-4.4989e-06
1.96553e-05
-8.28088e-06
2.65147e-05
-1.20795e-05
2.95008e-05
-1.55297e-05
2.95529e-05
-1.84819e-05
2.74744e-05
-2.09127e-05
2.38667e-05
-2.28563e-05
1.91438e-05
-2.43577e-05
1.35745e-05
-2.54391e-05
7.3312e-06
-2.60764e-05
5.4047e-07
-2.61823e-05
-6.66487e-06
-2.55995e-05
-1.40852e-05
-2.41122e-05
-2.1378e-05
-2.14927e-05
-2.79668e-05
-1.76047e-05
-3.29495e-05
-1.25762e-05
-3.50545e-05
-7.02274e-06
-3.27344e-05
-2.21942e-06
-2.45382e-05
-9.92286e-06
-1.66223e-06
9.80157e-06
-5.07156e-06
2.30647e-05
-8.93736e-06
3.03805e-05
-1.25077e-05
3.30712e-05
-1.54731e-05
3.25183e-05
-1.77918e-05
2.97931e-05
-1.95551e-05
2.56301e-05
-2.09006e-05
2.04893e-05
-2.1959e-05
1.46329e-05
-2.28211e-05
8.19325e-06
-2.35127e-05
1.23213e-06
-2.39733e-05
-6.20431e-06
-2.40361e-05
-1.40223e-05
-2.34209e-05
-2.19932e-05
-2.17585e-05
-2.96291e-05
-1.86867e-05
-3.60213e-05
-1.4061e-05
-3.96802e-05
-8.30216e-06
-3.84933e-05
-2.79341e-06
-3.00469e-05
-1.27163e-05
-2.06899e-06
1.18706e-05
-5.84765e-06
2.68433e-05
-9.62048e-06
3.41533e-05
-1.26074e-05
3.6058e-05
-1.46463e-05
3.45572e-05
-1.58774e-05
3.10243e-05
-1.65524e-05
2.6305e-05
-1.69345e-05
2.08715e-05
-1.72508e-05
1.49492e-05
-1.76676e-05
8.61007e-06
-1.8273e-05
1.83754e-06
-1.90547e-05
-5.42268e-06
-1.98695e-05
-1.32076e-05
-2.04098e-05
-2.14529e-05
-2.01877e-05
-2.98512e-05
-1.85865e-05
-3.76225e-05
-1.50674e-05
-4.31993e-05
-9.63016e-06
-4.39305e-05
-3.54264e-06
-3.61344e-05
-1.62589e-05
-2.74791e-06
1.46185e-05
-6.91078e-06
3.10062e-05
-1.02198e-05
3.74624e-05
-1.20386e-05
3.78768e-05
-1.25218e-05
3.50404e-05
-1.20888e-05
3.05913e-05
-1.11903e-05
2.54064e-05
-1.02187e-05
1.98998e-05
-9.48492e-06
1.42154e-05
-9.21798e-06
8.34312e-06
-9.56442e-06
2.18398e-06
-1.05747e-05
-4.41242e-06
-1.21684e-05
-1.16138e-05
-1.40756e-05
-1.95457e-05
-1.5764e-05
-2.81628e-05
-1.64023e-05
-3.69843e-05
-1.49783e-05
-4.46233e-05
-1.07823e-05
-4.81264e-05
-4.51301e-06
-4.24037e-05
-2.07719e-05
-3.85488e-06
1.84733e-05
-8.20275e-06
3.53541e-05
-1.02559e-05
3.95156e-05
-9.95811e-06
3.75789e-05
-8.04456e-06
3.31269e-05
-5.30176e-06
2.78485e-05
-2.37347e-06
2.24782e-05
2.62813e-07
1.72636e-05
2.26452e-06
1.22137e-05
3.38474e-06
7.22291e-06
3.44713e-06
2.12159e-06
2.34232e-06
-3.30761e-06
5.50406e-08
-9.32653e-06
-3.26506e-06
-1.62256e-05
-7.1788e-06
-2.4249e-05
-1.07958e-05
-3.33673e-05
-1.26884e-05
-4.27307e-05
-1.11818e-05
-4.9633e-05
-5.66819e-06
-4.79174e-05
-2.64401e-05
-5.43436e-06
2.39077e-05
-9.03749e-06
3.89572e-05
-8.23507e-06
3.87131e-05
-4.41962e-06
3.37635e-05
8.26446e-07
2.78808e-05
6.38718e-06
2.22878e-05
1.15511e-05
1.73142e-05
1.58841e-05
1.29306e-05
1.91165e-05
8.9813e-06
2.10628e-05
5.27661e-06
2.15717e-05
1.61266e-06
2.05043e-05
-2.24022e-06
1.77413e-05
-6.56348e-06
1.32375e-05
-1.17218e-05
7.16191e-06
-1.81734e-05
1.64493e-07
-2.63699e-05
-6.24613e-06
-3.632e-05
-9.44753e-06
-4.64316e-05
-6.62736e-06
-5.07376e-05
-3.30675e-05
-6.8319e-06
3.07396e-05
-6.67673e-06
3.8802e-05
-2.05723e-07
3.22421e-05
8.67217e-06
2.48856e-05
1.77285e-05
1.88245e-05
2.59399e-05
1.40764e-05
3.28643e-05
1.03898e-05
3.83329e-05
7.46203e-06
4.22872e-05
5.02697e-06
4.46902e-05
2.87364e-06
4.54773e-05
8.25565e-07
4.45286e-05
-1.29155e-06
4.1652e-05
-3.68689e-06
3.65918e-05
-6.66157e-06
2.91039e-05
-1.06855e-05
1.9203e-05
-1.6469e-05
7.75417e-06
-2.48712e-05
-2.47164e-06
-3.62058e-05
-6.03249e-06
-4.71767e-05
-3.91e-05
-3.23764e-06
3.39773e-05
7.97347e-06
2.75909e-05
2.30555e-05
1.71601e-05
3.68057e-05
1.11353e-05
4.81528e-05
7.47742e-06
5.71389e-05
5.09031e-06
6.4043e-05
3.48569e-06
6.91491e-05
2.35589e-06
7.26754e-05
1.50068e-06
7.47547e-05
7.94393e-07
7.54275e-05
1.5275e-07
7.46343e-05
-4.98367e-07
7.21852e-05
-1.2378e-06
6.77183e-05
-2.19463e-06
6.06388e-05
-3.606e-06
5.01202e-05
-5.95041e-06
3.5435e-05
-1.01861e-05
1.72524e-05
-1.80232e-05
1.1543e-06
-3.10786e-05
-3.79457e-05
3.39772e-05
6.15682e-05
7.87283e-05
8.98636e-05
9.7341e-05
0.000102431
0.000105917
0.000108273
0.000109774
0.000110568
0.000110721
0.000110222
0.000108985
0.00010679
0.000103184
9.72336e-05
8.70475e-05
6.90243e-05
3.79457e-05
)
;

boundaryField
{
    movingWall
    {
        type            calculated;
        value           uniform 0;
    }
    fixedWalls
    {
        type            calculated;
        value           uniform 0;
    }
    frontAndBack
    {
        type            empty;
        value           nonuniform List<scalar> 0();
    }
}


// ************************************************************************* //
