/*--------------------------------*- C++ -*----------------------------------*\
  =========                 |
  \\      /  F ield         | OpenFOAM: The Open Source CFD Toolbox
   \\    /   O peration     | Website:  https://openfoam.org
    \\  /    A nd           | Version:  8
     \\/     M anipulation  |
\*---------------------------------------------------------------------------*/
FoamFile
{
    version     2.0;
    format      ascii;
    class       volVectorField;
    location    "0.3";
    object      U;
}
// * * * * * * * * * * * * * * * * * * * * * * * * * * * * * * * * * * * * * //

dimensions      [0 1 -1 0 0 0 0];

internalField   nonuniform List<vector> 
400
(
(0.000913973 -0.000911735 0)
(0.000353318 0.000487574 0)
(-0.00474823 0.00214993 0)
(-0.0134043 0.00328095 0)
(-0.0241295 0.00384018 0)
(-0.0355458 0.00391517 0)
(-0.046467 0.00359623 0)
(-0.0558946 0.00295391 0)
(-0.0629952 0.00204175 0)
(-0.0670933 0.000912792 0)
(-0.0677029 -0.000361439 0)
(-0.0645951 -0.00167708 0)
(-0.0578828 -0.00289336 0)
(-0.0480967 -0.00384054 0)
(-0.0362228 -0.00434077 0)
(-0.0236692 -0.00424099 0)
(-0.0121369 -0.00345524 0)
(-0.0033788 -0.00201249 0)
(0.00116879 -0.000169158 0)
(0.00112185 0.0010885 0)
(-0.000422654 -0.000441349 0)
(-0.00655245 0.0065259 0)
(-0.0222503 0.0137656 0)
(-0.0449766 0.0188039 0)
(-0.0717419 0.0212914 0)
(-0.0997024 0.0214153 0)
(-0.1262 0.0194852 0)
(-0.148886 0.0158151 0)
(-0.165784 0.0107081 0)
(-0.175329 0.00450228 0)
(-0.176463 -0.00236893 0)
(-0.168763 -0.00933318 0)
(-0.152603 -0.0156743 0)
(-0.129272 -0.020579 0)
(-0.101009 -0.02324 0)
(-0.0708993 -0.023011 0)
(-0.0425408 -0.0196007 0)
(-0.0195057 -0.0132803 0)
(-0.00477993 -0.00522156 0)
(9.15043e-05 0.00130457 0)
(-0.00221847 0.00467686 0)
(-0.014764 0.0224443 0)
(-0.0411502 0.0389043 0)
(-0.0766314 0.0502413 0)
(-0.116918 0.0556598 0)
(-0.158226 0.0553965 0)
(-0.196959 0.0500523 0)
(-0.229892 0.0403421 0)
(-0.254298 0.0270418 0)
(-0.268032 0.0110568 0)
(-0.269659 -0.00647367 0)
(-0.258628 -0.0241051 0)
(-0.235458 -0.0400944 0)
(-0.201884 -0.0525166 0)
(-0.160907 -0.0595054 0)
(-0.116653 -0.0596091 0)
(-0.073958 -0.0522281 0)
(-0.0376805 -0.038058 0)
(-0.0123153 -0.0196102 0)
(-0.00145081 -0.00255033 0)
(-0.0038192 0.0142327 0)
(-0.0224715 0.0475605 0)
(-0.0591718 0.0757326 0)
(-0.106617 0.094497 0)
(-0.159133 0.102948 0)
(-0.212156 0.101522 0)
(-0.26143 0.0912068 0)
(-0.303149 0.073218 0)
(-0.334096 0.0489243 0)
(-0.351725 0.0199458 0)
(-0.354303 -0.0116989 0)
(-0.341095 -0.0434893 0)
(-0.312586 -0.0724208 0)
(-0.270672 -0.0951925 0)
(-0.218764 -0.108596 0)
(-0.161708 -0.110102 0)
(-0.105367 -0.0985746 0)
(-0.0559016 -0.0749833 0)
(-0.0196539 -0.0430504 0)
(-0.00282954 -0.0104289 0)
(-0.00520824 0.0277317 0)
(-0.0294858 0.0811631 0)
(-0.0759178 0.123265 0)
(-0.13462 0.150198 0)
(-0.198496 0.161465 0)
(-0.262271 0.157994 0)
(-0.321185 0.141324 0)
(-0.371045 0.113262 0)
(-0.40831 0.0758313 0)
(-0.430138 0.0314135 0)
(-0.4345 -0.0170421 0)
(-0.420372 -0.0658691 0)
(-0.387995 -0.110685 0)
(-0.33914 -0.146623 0)
(-0.27734 -0.168853 0)
(-0.207945 -0.173396 0)
(-0.137811 -0.158165 0)
(-0.0746044 -0.124 0)
(-0.026941 -0.0754986 0)
(-0.00408495 -0.0220526 0)
(-0.00644679 0.0447795 0)
(-0.0359074 0.122696 0)
(-0.0914377 0.18094 0)
(-0.160683 0.216757 0)
(-0.235161 0.230602 0)
(-0.30895 0.22426 0)
(-0.376916 0.200034 0)
(-0.434627 0.160423 0)
(-0.478351 0.108123 0)
(-0.50502 0.0462549 0)
(-0.512292 -0.0213496 0)
(-0.498731 -0.0899057 0)
(-0.4641 -0.153615 0)
(-0.409742 -0.205883 0)
(-0.338989 -0.23992 0)
(-0.257468 -0.249783 0)
(-0.172987 -0.231791 0)
(-0.0949603 -0.186024 0)
(-0.0347928 -0.117534 0)
(-0.00538973 -0.0374537 0)
(-0.0075851 0.0650786 0)
(-0.0418517 0.171605 0)
(-0.105834 0.2481 0)
(-0.184831 0.293471 0)
(-0.269048 0.309669 0)
(-0.35202 0.299743 0)
(-0.428375 0.267002 0)
(-0.493605 0.214737 0)
(-0.543935 0.146307 0)
(-0.576161 0.065471 0)
(-0.587633 -0.0231978 0)
(-0.576396 -0.113934 0)
(-0.541508 -0.199582 0)
(-0.483533 -0.271715 0)
(-0.405198 -0.321225 0)
(-0.312036 -0.339542 0)
(-0.21264 -0.320493 0)
(-0.118338 -0.262466 0)
(-0.0439502 -0.170336 0)
(-0.00693971 -0.0570749 0)
(-0.00865862 0.0883999 0)
(-0.0474077 0.227353 0)
(-0.119165 0.323986 0)
(-0.206949 0.379423 0)
(-0.29974 0.397691 0)
(-0.390663 0.38355 0)
(-0.474303 0.341588 0)
(-0.546287 0.275992 0)
(-0.602993 0.190736 0)
(-0.641242 0.0900527 0)
(-0.658152 -0.0209846 0)
(-0.651208 -0.135894 0)
(-0.618562 -0.246367 0)
(-0.559632 -0.342156 0)
(-0.476004 -0.411525 0)
(-0.372534 -0.442524 0)
(-0.258146 -0.425294 0)
(-0.146055 -0.35515 0)
(-0.0551886 -0.235738 0)
(-0.00894419 -0.0817936 0)
(-0.00970241 0.114564 0)
(-0.0526698 0.289419 0)
(-0.131479 0.40771 0)
(-0.226812 0.473387 0)
(-0.326497 0.493222 0)
(-0.423436 0.474207 0)
(-0.512434 0.422526 0)
(-0.589546 0.343369 0)
(-0.651593 0.241257 0)
(-0.695676 0.120678 0)
(-0.718874 -0.0131368 0)
(-0.718189 -0.153399 0)
(-0.690768 -0.291036 0)
(-0.634529 -0.414216 0)
(-0.549285 -0.508433 0)
(-0.438345 -0.557616 0)
(-0.310092 -0.546751 0)
(-0.179186 -0.466076 0)
(-0.0692964 -0.316166 0)
(-0.0116403 -0.112932 0)
(-0.0107844 0.143462 0)
(-0.0578356 0.35732 0)
(-0.142948 0.498202 0)
(-0.244219 0.573661 0)
(-0.348368 0.594072 0)
(-0.448347 0.569302 0)
(-0.539546 0.507503 0)
(-0.618845 0.414993 0)
(-0.683906 0.296761 0)
(-0.73249 0.157289 0)
(-0.761977 0.00154803 0)
(-0.769138 -0.163923 0)
(-0.750188 -0.329919 0)
(-0.701314 -0.483576 0)
(-0.619896 -0.60783 0)
(-0.506565 -0.681968 0)
(-0.367729 -0.684195 0)
(-0.218346 -0.596899 0)
(-0.0870825 -0.414475 0)
(-0.0153268 -0.152284 0)
(-0.0120642 0.175158 0)
(-0.0633722 0.430713 0)
(-0.154098 0.594184 0)
(-0.2592 0.677888 0)
(-0.364344 0.697 0)
(-0.462954 0.66509 0)
(-0.551527 0.592708 0)
(-0.628293 0.487444 0)
(-0.692259 0.354666 0)
(-0.742341 0.198575 0)
(-0.776718 0.0234149 0)
(-0.792384 -0.1652 0)
(-0.784955 -0.358801 0)
(-0.74892 -0.544456 0)
(-0.678714 -0.703317 0)
(-0.571012 -0.810061 0)
(-0.428209 -0.834642 0)
(-0.263346 -0.748086 0)
(-0.109385 -0.533625 0)
(-0.0204197 -0.202174 0)
(-0.0138955 0.210126 0)
(-0.0702698 0.509614 0)
(-0.166083 0.694152 0)
(-0.272191 0.782809 0)
(-0.373402 0.797337 0)
(-0.464326 0.756056 0)
(-0.543326 0.672388 0)
(-0.610644 0.555303 0)
(-0.66722 0.410437 0)
(-0.71369 0.241438 0)
(-0.749623 0.0513655 0)
(-0.77289 -0.155803 0)
(-0.779149 -0.373385 0)
(-0.761633 -0.589776 0)
(-0.711733 -0.785866 0)
(-0.62106 -0.932733 0)
(-0.485496 -0.991379 0)
(-0.31259 -0.917606 0)
(-0.137037 -0.676127 0)
(-0.0275409 -0.265588 0)
(-0.0170075 0.249711 0)
(-0.0804039 0.594727 0)
(-0.180922 0.796255 0)
(-0.283962 0.883834 0)
(-0.374137 0.888455 0)
(-0.448529 0.834433 0)
(-0.508456 0.738443 0)
(-0.556968 0.610806 0)
(-0.597529 0.457243 0)
(-0.63301 0.280581 0)
(-0.664942 0.0823104 0)
(-0.692801 -0.135851 0)
(-0.713202 -0.370073 0)
(-0.719096 -0.611774 0)
(-0.699462 -0.84391 0)
(-0.640411 -1.03639 0)
(-0.528877 -1.14226 0)
(-0.362019 -1.09897 0)
(-0.170697 -0.842995 0)
(-0.0376423 -0.346382 0)
(-0.022815 0.296956 0)
(-0.0969872 0.687748 0)
(-0.201392 0.897774 0)
(-0.294728 0.974158 0)
(-0.36331 0.960936 0)
(-0.408954 0.889622 0)
(-0.437439 0.780145 0)
(-0.455457 0.643803 0)
(-0.469423 0.486011 0)
(-0.484707 0.308484 0)
(-0.505126 0.110907 0)
(-0.532345 -0.107634 0)
(-0.564946 -0.346963 0)
(-0.597059 -0.603183 0)
(-0.616886 -0.864225 0)
(-0.605982 -1.1029 0)
(-0.540995 -1.26808 0)
(-0.403248 -1.2785 0)
(-0.210218 -1.03177 0)
(-0.0521043 -0.449468 0)
(-0.0338543 0.357919 0)
(-0.124811 0.791218 0)
(-0.229647 0.993602 0)
(-0.301077 1.04302 0)
(-0.331865 1.00133 0)
(-0.332228 0.90766 0)
(-0.314157 0.784248 0)
(-0.288542 0.642312 0)
(-0.264692 0.4862 0)
(-0.250184 0.316149 0)
(-0.250891 0.12998 0)
(-0.270781 -0.0757903 0)
(-0.311136 -0.304832 0)
(-0.368936 -0.558982 0)
(-0.43427 -0.833961 0)
(-0.487139 -1.11085 0)
(-0.495253 -1.34173 0)
(-0.420177 -1.43193 0)
(-0.252648 -1.23288 0)
(-0.0724341 -0.580595 0)
(-0.0539046 0.443799 0)
(-0.168766 0.906638 0)
(-0.261688 1.07235 0)
(-0.28753 1.07249 0)
(-0.255754 0.990527 0)
(-0.189796 0.871125 0)
(-0.108895 0.736032 0)
(-0.0276006 0.594254 0)
(0.0429972 0.447835 0)
(0.0943373 0.295086 0)
(0.11956 0.132132 0)
(0.113088 -0.046487 0)
(0.0709187 -0.247531 0)
(-0.00803967 -0.478307 0)
(-0.118946 -0.743847 0)
(-0.245518 -1.03882 0)
(-0.352397 -1.32928 0)
(-0.382866 -1.52128 0)
(-0.286698 -1.42424 0)
(-0.0982239 -0.746038 0)
(-0.0856584 0.575302 0)
(-0.225397 1.02714 0)
(-0.269881 1.10582 0)
(-0.205978 1.03051 0)
(-0.0774929 0.901299 0)
(0.0765765 0.759852 0)
(0.232151 0.621818 0)
(0.374167 0.490778 0)
(0.492643 0.365034 0)
(0.58046 0.240695 0)
(0.631732 0.112688 0)
(0.640828 -0.0252547 0)
(0.602038 -0.181187 0)
(0.510047 -0.365734 0)
(0.362175 -0.59191 0)
(0.164481 -0.870534 0)
(-0.0561656 -1.19327 0)
(-0.237476 -1.49185 0)
(-0.280735 -1.5624 0)
(-0.120009 -0.952503 0)
(-0.115919 0.781164 0)
(-0.25038 1.11307 0)
(-0.155171 1.02807 0)
(0.0675418 0.863022 0)
(0.324351 0.699928 0)
(0.573405 0.556999 0)
(0.796804 0.436081 0)
(0.986036 0.332885 0)
(1.13696 0.241653 0)
(1.24707 0.156874 0)
(1.31374 0.0733612 0)
(1.33322 -0.0143721 0)
(1.29991 -0.113187 0)
(1.2058 -0.233136 0)
(1.04069 -0.389857 0)
(0.795688 -0.606022 0)
(0.47337 -0.904357 0)
(0.110702 -1.27311 0)
(-0.158439 -1.55934 0)
(-0.0969604 -1.18065 0)
(-0.0167437 0.984852 0)
(-0.0190294 1.02664 0)
(0.368777 0.751501 0)
(0.79947 0.540272 0)
(1.16354 0.392975 0)
(1.46039 0.287363 0)
(1.69935 0.210276 0)
(1.88695 0.151994 0)
(2.02849 0.105255 0)
(2.1277 0.0649419 0)
(2.18614 0.0272914 0)
(2.203 -0.0109693 0)
(2.17457 -0.0536417 0)
(2.09317 -0.106497 0)
(1.94526 -0.180177 0)
(1.70935 -0.295682 0)
(1.35342 -0.491838 0)
(0.842064 -0.819631 0)
(0.281815 -1.24847 0)
(0.132228 -1.23569 0)
(1.0949 0.53711 0)
(1.412 0.47487 0)
(1.9781 0.297283 0)
(2.41555 0.183357 0)
(2.6938 0.116181 0)
(2.87987 0.0749409 0)
(3.01147 0.0489336 0)
(3.10516 0.0318858 0)
(3.17008 0.0198847 0)
(3.2117 0.0105757 0)
(3.23283 0.00252042 0)
(3.23418 -0.00527944 0)
(3.21456 -0.0138471 0)
(3.17029 -0.0246384 0)
(3.09317 -0.0406204 0)
(2.9659 -0.0688049 0)
(2.74802 -0.126267 0)
(2.33745 -0.249534 0)
(1.68159 -0.475536 0)
(1.22568 -0.581175 0)
)
;

boundaryField
{
    movingWall
    {
        type            fixedValue;
        value           uniform (3.8 0 0);
    }
    fixedWalls
    {
        type            noSlip;
    }
    frontAndBack
    {
        type            empty;
    }
}


// ************************************************************************* //
