/*--------------------------------*- C++ -*----------------------------------*\
  =========                 |
  \\      /  F ield         | OpenFOAM: The Open Source CFD Toolbox
   \\    /   O peration     | Website:  https://openfoam.org
    \\  /    A nd           | Version:  8
     \\/     M anipulation  |
\*---------------------------------------------------------------------------*/
FoamFile
{
    version     2.0;
    format      ascii;
    class       volScalarField;
    location    "0.3";
    object      p;
}
// * * * * * * * * * * * * * * * * * * * * * * * * * * * * * * * * * * * * * //

dimensions      [0 2 -2 0 0 0 0];

internalField   nonuniform List<scalar> 
400
(
2.44921e-08
-0.0210365
-0.0460661
-0.0648705
-0.0719398
-0.0649332
-0.0435847
-0.00899595
0.0367085
0.0904704
0.148318
0.205478
0.256695
0.296806
0.321564
0.328609
0.318452
0.295271
0.267316
0.246568
0.0208908
-0.000871541
-0.0204192
-0.033196
-0.0369085
-0.0299714
-0.0120571
0.016128
0.0530588
0.0964223
0.143124
0.189391
0.23105
0.264017
0.284964
0.292089
0.285848
0.269291
0.247213
0.226097
0.047388
0.0173506
-0.00358635
-0.0150856
-0.0180582
-0.0118497
0.00364087
0.0278306
0.0595752
0.0970872
0.137853
0.178667
0.215849
0.245669
0.264955
0.27179
0.26623
0.250369
0.226168
0.196644
0.0697769
0.0286902
0.00301392
-0.00990333
-0.0137305
-0.00865667
0.00513165
0.0270679
0.0562686
0.0913246
0.130095
0.169642
0.206368
0.236399
0.256173
0.263181
0.256823
0.238394
0.207741
0.166052
0.0811704
0.0289087
-0.00229142
-0.0174725
-0.0226848
-0.0188069
-0.00624186
0.0144886
0.0427576
0.0775005
0.116875
0.158081
0.1974
0.230526
0.253152
0.26181
0.25498
0.233142
0.194382
0.138912
0.0762235
0.0133076
-0.0234349
-0.0410804
-0.0477654
-0.0449147
-0.0330466
-0.012564
0.0162134
0.0525932
0.0950337
0.140826
0.186016
0.225639
0.254308
0.267182
0.261436
0.236531
0.188817
0.118016
0.0503821
-0.0225268
-0.0644926
-0.0844376
-0.0924061
-0.0902715
-0.0785737
-0.0574989
-0.0269623
0.0128143
0.0606807
0.114079
0.168794
0.219054
0.258048
0.279054
0.277364
0.250922
0.193928
0.105735
-0.000583727
-0.0828192
-0.129467
-0.15125
-0.16008
-0.158252
-0.146261
-0.123967
-0.0907375
-0.0461448
0.00925447
0.0732455
0.141476
0.207316
0.262233
0.297005
0.304209
0.279359
0.213483
0.105266
-0.0808317
-0.171813
-0.222404
-0.245231
-0.254205
-0.252123
-0.23941
-0.215498
-0.179022
-0.128648
-0.0640167
0.0133535
0.0992831
0.186431
0.264343
0.320635
0.344045
0.326199
0.25308
0.121825
-0.194596
-0.293923
-0.347393
-0.369878
-0.377721
-0.37444
-0.360443
-0.334642
-0.29473
-0.238142
-0.163168
-0.0701013
0.0376028
0.15232
0.261742
0.349744
0.399875
0.397747
0.321233
0.164044
-0.346455
-0.454014
-0.50858
-0.528146
-0.532439
-0.526149
-0.509794
-0.481689
-0.438358
-0.375631
-0.28992
-0.179613
-0.0466287
0.101941
0.252461
0.384856
0.476133
0.503084
0.430799
0.245905
-0.542076
-0.658023
-0.710285
-0.722018
-0.718207
-0.705445
-0.684534
-0.653099
-0.60622
-0.53771
-0.441542
-0.313425
-0.152714
0.0352791
0.236794
0.428373
0.579606
0.655244
0.600986
0.389728
-0.790093
-0.914249
-0.957266
-0.951938
-0.931847
-0.906446
-0.8769
-0.839899
-0.788688
-0.714606
-0.608632
-0.463038
-0.273501
-0.04196
0.219703
0.486481
0.720934
0.872884
0.860302
0.631194
-1.10658
-1.23579
-1.25499
-1.21588
-1.1658
-1.11782
-1.07303
-1.02655
-0.969126
-0.889052
-0.773791
-0.611545
-0.393316
-0.115952
0.213256
0.57124
0.916306
1.18233
1.25094
1.02837
-1.52519
-1.6447
-1.60922
-1.50739
-1.40619
-1.32135
-1.25223
-1.19085
-1.12432
-1.03708
-0.912577
-0.7345
-0.488467
-0.164735
0.237061
0.701022
1.18764
1.61848
1.83401
1.67677
-2.11747
-2.17773
-2.02397
-1.81238
-1.63051
-1.49108
-1.3875
-1.30577
-1.22743
-1.13192
-0.998147
-0.805049
-0.532469
-0.162974
0.314411
0.897506
1.55973
2.22193
2.69104
2.72673
-3.03395
-2.89167
-2.49852
-2.10827
-1.80873
-1.59616
-1.45013
-1.34552
-1.25521
-1.15238
-1.01086
-0.80473
-0.507845
-0.0941574
0.460917
1.17641
2.05277
3.03129
3.92269
4.41024
-4.64416
-3.86004
-2.9995
-2.34619
-1.89467
-1.59855
-1.41228
-1.29148
-1.19668
-1.09372
-0.951572
-0.739937
-0.42708
0.0224775
0.650464
1.50642
2.63623
4.04278
5.66555
7.20929
-7.98731
-5.10717
-3.28101
-2.30899
-1.73591
-1.39843
-1.21342
-1.11216
-1.04221
-0.964222
-0.845075
-0.652857
-0.353457
0.0953558
0.751526
1.7018
3.06777
5.02226
8.0098
12.2467
-14.2208
-6.31048
-2.83606
-1.6604
-1.14316
-0.895946
-0.806132
-0.792374
-0.798405
-0.786961
-0.728703
-0.595823
-0.357135
0.0262907
0.613339
1.50974
2.92627
5.35676
10.3271
19.7453
)
;

boundaryField
{
    movingWall
    {
        type            zeroGradient;
    }
    fixedWalls
    {
        type            zeroGradient;
    }
    frontAndBack
    {
        type            empty;
    }
}


// ************************************************************************* //
