/*--------------------------------*- C++ -*----------------------------------*\
  =========                 |
  \\      /  F ield         | OpenFOAM: The Open Source CFD Toolbox
   \\    /   O peration     | Website:  https://openfoam.org
    \\  /    A nd           | Version:  8
     \\/     M anipulation  |
\*---------------------------------------------------------------------------*/
FoamFile
{
    version     2.0;
    format      ascii;
    class       volScalarField;
    location    "0.3";
    object      p;
}
// * * * * * * * * * * * * * * * * * * * * * * * * * * * * * * * * * * * * * //

dimensions      [0 2 -2 0 0 0 0];

internalField   nonuniform List<scalar> 
400
(
-3.02811e-05
-0.0282005
-0.0614108
-0.086328
-0.0959952
-0.0874891
-0.0603742
-0.0158019
0.0438238
0.114801
0.192006
0.268955
0.338234
0.392398
0.42528
0.433531
0.418091
0.385237
0.346792
0.319286
0.0279311
-0.00126009
-0.0271915
-0.0441093
-0.0493188
-0.0408659
-0.0182386
0.0178923
0.0658587
0.122903
0.185061
0.247222
0.303494
0.347959
0.375745
0.384261
0.374307
0.350511
0.320067
0.292182
0.0630795
0.0228147
-0.00487199
-0.0200065
-0.024245
-0.0168787
0.00232223
0.0328836
0.0736867
0.122722
0.176846
0.231732
0.282147
0.322603
0.348363
0.356599
0.347514
0.324456
0.290949
0.251747
0.0920525
0.0371101
0.00329451
-0.0136385
-0.0191455
-0.0136501
0.00274928
0.0296974
0.066543
0.111903
0.163225
0.216583
0.266814
0.308116
0.335039
0.343773
0.333524
0.306598
0.263907
0.208102
0.105148
0.0355393
-0.00538204
-0.02532
-0.0330228
-0.0298182
-0.0159968
0.00829655
0.0429342
0.0871762
0.139025
0.194819
0.249203
0.295627
0.32736
0.338977
0.328206
0.296224
0.241808
0.166733
0.0946947
0.0113908
-0.0366026
-0.0599692
-0.0703118
-0.0696377
-0.0582525
-0.0359384
-0.00216968
0.0430702
0.0984236
0.160513
0.223682
0.280321
0.32186
0.340519
0.331819
0.295373
0.227787
0.130713
0.0541898
-0.0415451
-0.0961433
-0.122967
-0.136154
-0.138222
-0.129328
-0.108713
-0.0750016
-0.0271958
0.0342279
0.106389
0.183413
0.256456
0.314565
0.346678
0.345009
0.306633
0.225225
0.102564
-0.0221603
-0.12896
-0.189431
-0.219453
-0.235522
-0.240599
-0.234573
-0.21596
-0.182281
-0.131211
-0.0619152
0.0236827
0.119855
0.216596
0.300118
0.354986
0.368516
0.333495
0.238843
0.0860903
-0.139609
-0.256153
-0.321549
-0.354174
-0.372915
-0.38124
-0.37874
-0.363052
-0.330299
-0.276382
-0.198532
-0.0969779
0.023439
0.15202
0.271981
0.36239
0.403562
0.381204
0.276113
0.0882194
-0.302894
-0.42808
-0.497087
-0.531026
-0.551569
-0.562985
-0.564652
-0.553227
-0.523146
-0.468017
-0.382375
-0.263729
-0.114872
0.0538538
0.223092
0.365595
0.452252
0.457656
0.348917
0.121231
-0.516414
-0.649582
-0.720025
-0.752454
-0.772411
-0.785584
-0.791374
-0.785423
-0.760202
-0.706503
-0.615331
-0.480277
-0.300517
-0.0842996
0.147817
0.362337
0.518514
0.574675
0.475771
0.205928
-0.785046
-0.926102
-0.993815
-1.01881
-1.03283
-1.04403
-1.05218
-1.05187
-1.03332
-0.983996
-0.89059
-0.741569
-0.53073
-0.261868
0.0458285
0.354298
0.610207
0.750061
0.685008
0.376557
-1.11642
-1.26532
-1.32173
-1.32763
-1.32536
-1.32695
-1.33275
-1.33608
-1.3245
-1.28163
-1.18918
-1.0295
-0.789402
-0.465605
-0.0722504
0.351972
0.742897
1.01092
1.01952
0.688946
-1.52651
-1.68036
-1.70739
-1.67271
-1.63631
-1.61531
-1.61016
-1.61214
-1.60532
-1.56881
-1.4788
-1.31091
-1.04387
-0.665054
-0.179357
0.380199
0.944681
1.39826
1.5439
1.23452
-2.05243
-2.19534
-2.15459
-2.04213
-1.9441
-1.88167
-1.85323
-1.84602
-1.83909
-1.80603
-1.71698
-1.54062
-1.24716
-0.813324
-0.230957
0.480484
1.25876
1.97009
2.35241
2.16142
-2.77904
-2.85364
-2.66538
-2.41507
-2.21757
-2.09052
-2.02474
-1.99959
-1.98652
-1.9521
-1.85984
-1.67149
-1.34875
-0.857307
-0.17322
0.70571
1.74002
2.79825
3.5701
3.6939
-3.89489
-3.72764
-3.23818
-2.7626
-2.41908
-2.20335
-2.0885
-2.0395
-2.01633
-1.97676
-1.87714
-1.67231
-1.31564
-0.761167
0.0335456
1.10044
2.44072
3.95753
5.35272
6.16383
-5.87714
-4.91762
-3.83682
-3.02866
-2.49519
-2.17612
-2.01237
-1.94452
-1.91627
-1.87541
-1.77145
-1.55322
-1.16613
-0.551679
0.35578
1.6296
3.33543
5.46782
7.91984
10.2519
-10.089
-6.4578
-4.14501
-2.93529
-2.25018
-1.87862
-1.71581
-1.6718
-1.67311
-1.66036
-1.58006
-1.37856
-0.998083
-0.369981
0.594415
2.02109
4.08606
7.02741
11.4117
17.4719
-18.2355
-7.92821
-3.47046
-2.0261
-1.42427
-1.1683
-1.12634
-1.19415
-1.29253
-1.36437
-1.36091
-1.23333
-0.927507
-0.376532
0.511543
1.89146
4.0703
7.73865
14.8708
27.87
)
;

boundaryField
{
    movingWall
    {
        type            zeroGradient;
    }
    fixedWalls
    {
        type            zeroGradient;
    }
    frontAndBack
    {
        type            empty;
    }
}


// ************************************************************************* //
