/*--------------------------------*- C++ -*----------------------------------*\
  =========                 |
  \\      /  F ield         | OpenFOAM: The Open Source CFD Toolbox
   \\    /   O peration     | Website:  https://openfoam.org
    \\  /    A nd           | Version:  8
     \\/     M anipulation  |
\*---------------------------------------------------------------------------*/
FoamFile
{
    version     2.0;
    format      ascii;
    class       volVectorField;
    location    "0.3";
    object      U;
}
// * * * * * * * * * * * * * * * * * * * * * * * * * * * * * * * * * * * * * //

dimensions      [0 1 -1 0 0 0 0];

internalField   nonuniform List<vector> 
400
(
(0.00114366 -0.00114216 0)
(0.000396289 0.000633587 0)
(-0.0060788 0.00271346 0)
(-0.0169805 0.00411355 0)
(-0.0304391 0.00480596 0)
(-0.0447652 0.00491236 0)
(-0.0585198 0.00454407 0)
(-0.0704808 0.00377707 0)
(-0.0795952 0.00266119 0)
(-0.0849691 0.00124753 0)
(-0.0859193 -0.000381833 0)
(-0.0820822 -0.00209269 0)
(-0.0735494 -0.003692 0)
(-0.0609885 -0.00494166 0)
(-0.0457006 -0.00559285 0)
(-0.029567 -0.00543846 0)
(-0.0148491 -0.00437631 0)
(-0.00382735 -0.00247462 0)
(0.00171885 -0.000111492 0)
(0.00147519 0.0014271 0)
(-0.000576742 -0.000495987 0)
(-0.00843333 0.0083381 0)
(-0.0283565 0.0174024 0)
(-0.057044 0.0236553 0)
(-0.0907368 0.0267446 0)
(-0.125936 0.0269488 0)
(-0.159387 0.0246466 0)
(-0.188187 0.0201803 0)
(-0.209832 0.0138606 0)
(-0.222266 0.00605179 0)
(-0.22402 -0.0027286 0)
(-0.21443 -0.0117407 0)
(-0.193877 -0.0200151 0)
(-0.163988 -0.0264283 0)
(-0.127697 -0.0298646 0)
(-0.0890842 -0.0294547 0)
(-0.052907 -0.0248583 0)
(-0.0238153 -0.0165422 0)
(-0.00553779 -0.00618693 0)
(0.000255019 0.00189909 0)
(-0.00288564 0.00609706 0)
(-0.0189358 0.0286165 0)
(-0.0524361 0.049227 0)
(-0.0972683 0.0633091 0)
(-0.148049 0.070045 0)
(-0.200125 0.0698178 0)
(-0.249085 0.063355 0)
(-0.290931 0.0514404 0)
(-0.322204 0.0349001 0)
(-0.34009 0.0147464 0)
(-0.342611 -0.00764204 0)
(-0.328898 -0.030401 0)
(-0.299483 -0.0511895 0)
(-0.256539 -0.0673707 0)
(-0.203968 -0.0763813 0)
(-0.147211 -0.0762689 0)
(-0.0926577 -0.0663248 0)
(-0.046667 -0.0476815 0)
(-0.0149211 -0.0239253 0)
(-0.00163713 -0.00263316 0)
(-0.0049514 0.0183824 0)
(-0.0287969 0.0606069 0)
(-0.0753675 0.0958638 0)
(-0.135298 0.119163 0)
(-0.201492 0.12967 0)
(-0.268362 0.128061 0)
(-0.3307 0.115524 0)
(-0.383792 0.09339 0)
(-0.423556 0.0631351 0)
(-0.446649 0.0265894 0)
(-0.450674 -0.0137984 0)
(-0.434474 -0.0547873 0)
(-0.398474 -0.0923627 0)
(-0.344991 -0.122022 0)
(-0.278418 -0.139362 0)
(-0.205128 -0.14096 0)
(-0.132897 -0.125417 0)
(-0.0698633 -0.0943404 0)
(-0.0241627 -0.0531133 0)
(-0.00334077 -0.0121801 0)
(-0.00674003 0.035722 0)
(-0.0377187 0.103359 0)
(-0.0965192 0.155993 0)
(-0.170536 0.189407 0)
(-0.250944 0.203428 0)
(-0.331333 0.199393 0)
(-0.405914 0.179134 0)
(-0.469513 0.144628 0)
(-0.517642 0.098051 0)
(-0.546552 0.0420885 0)
(-0.553414 -0.0196997 0)
(-0.536614 -0.0826258 0)
(-0.496157 -0.140861 0)
(-0.43409 -0.187782 0)
(-0.354877 -0.216742 0)
(-0.26553 -0.222304 0)
(-0.175186 -0.201777 0)
(-0.0940933 -0.156696 0)
(-0.0334885 -0.0938713 0)
(-0.00490697 -0.0264444 0)
(-0.00831104 0.0575679 0)
(-0.0457529 0.15605 0)
(-0.115797 0.228751 0)
(-0.202804 0.273153 0)
(-0.296311 0.290446 0)
(-0.389198 0.283076 0)
(-0.475275 0.253764 0)
(-0.549106 0.205224 0)
(-0.605969 0.140328 0)
(-0.641794 0.062547 0)
(-0.653277 -0.023545 0)
(-0.638157 -0.111884 0)
(-0.595669 -0.1948 0)
(-0.527134 -0.263326 0)
(-0.436612 -0.308088 0)
(-0.33141 -0.320865 0)
(-0.221976 -0.296728 0)
(-0.121049 -0.23626 0)
(-0.0437687 -0.147193 0)
(-0.00657118 -0.0455594 0)
(-0.00970774 0.0834499 0)
(-0.052963 0.217781 0)
(-0.133165 0.313079 0)
(-0.231892 0.369306 0)
(-0.337201 0.389705 0)
(-0.441406 0.378318 0)
(-0.538112 0.339026 0)
(-0.621835 0.275368 0)
(-0.687802 0.190855 0)
(-0.731738 0.0895739 0)
(-0.74986 -0.0231219 0)
(-0.739099 -0.140019 0)
(-0.697587 -0.251719 0)
(-0.625409 -0.346782 0)
(-0.525613 -0.412586 0)
(-0.405237 -0.437148 0)
(-0.275771 -0.411955 0)
(-0.152703 -0.335275 0)
(-0.0560609 -0.214947 0)
(-0.0086078 -0.0702302 0)
(-0.0109541 0.112937 0)
(-0.0593786 0.287592 0)
(-0.148533 0.407707 0)
(-0.257431 0.476439 0)
(-0.37281 0.499782 0)
(-0.486617 0.483895 0)
(-0.592489 0.434118 0)
(-0.685163 0.354903 0)
(-0.760067 0.250296 0)
(-0.812921 0.124743 0)
(-0.839569 -0.0159866 0)
(-0.836088 -0.163933 0)
(-0.799241 -0.308294 0)
(-0.727358 -0.435213 0)
(-0.621697 -0.528391 0)
(-0.488139 -0.570975 0)
(-0.338501 -0.549079 0)
(-0.190954 -0.456586 0)
(-0.071487 -0.299952 0)
(-0.0113172 -0.101781 0)
(-0.0120742 0.145614 0)
(-0.0650444 0.364474 0)
(-0.161826 0.511138 0)
(-0.278955 0.592684 0)
(-0.402004 0.618621 0)
(-0.522784 0.597809 0)
(-0.635282 0.537389 0)
(-0.734801 0.442822 0)
(-0.81733 0.318568 0)
(-0.87892 0.169118 0)
(-0.915316 0.000171797 0)
(-0.921884 -0.180156 0)
(-0.893928 -0.360246 0)
(-0.82758 -0.524214 0)
(-0.721431 -0.651944 0)
(-0.578927 -0.720671 0)
(-0.410854 -0.708953 0)
(-0.237316 -0.603243 0)
(-0.0911957 -0.405884 0)
(-0.0150471 -0.142182 0)
(-0.0131364 0.181116 0)
(-0.070154 0.447407 0)
(-0.173182 0.621612 0)
(-0.296142 0.715564 0)
(-0.423546 0.743224 0)
(-0.54738 0.716857 0)
(-0.662393 0.645806 0)
(-0.764911 0.536668 0)
(-0.851957 0.394204 0)
(-0.920409 0.222609 0)
(-0.966395 0.0269624 0)
(-0.984974 -0.185232 0)
(-0.970203 -0.402442 0)
(-0.915814 -0.607606 0)
(-0.816906 -0.777211 0)
(-0.672901 -0.881953 0)
(-0.491392 -0.890497 0)
(-0.292545 -0.777684 0)
(-0.116355 -0.537005 0)
(-0.0202396 -0.194085 0)
(-0.0143284 0.219269 0)
(-0.0752725 0.535535 0)
(-0.183282 0.737129 0)
(-0.309149 0.84183 0)
(-0.436416 0.869332 0)
(-0.557697 0.836189 0)
(-0.669066 0.754419 0)
(-0.768446 0.631916 0)
(-0.854489 0.473654 0)
(-0.925524 0.283226 0)
(-0.978747 0.0645234 0)
(-1.00962 -0.176423 0)
(-1.01157 -0.429355 0)
(-0.97617 -0.677453 0)
(-0.894547 -0.895072 0)
(-0.760461 -1.04666 0)
(-0.57537 -1.08909 0)
(-0.356028 -0.980408 0)
(-0.148122 -0.697638 0)
(-0.0275064 -0.260913 0)
(-0.0160871 0.260401 0)
(-0.0816722 0.628499 0)
(-0.193759 0.85553 0)
(-0.318965 0.967282 0)
(-0.440059 0.991076 0)
(-0.551042 0.948873 0)
(-0.65011 0.855881 0)
(-0.737501 0.721442 0)
(-0.814155 0.55068 0)
(-0.880544 0.34634 0)
(-0.935741 0.110652 0)
(-0.976578 -0.152659 0)
(-0.99688 -0.43596 0)
(-0.986988 -0.724611 0)
(-0.934278 -0.993152 0)
(-0.825673 -1.20162 0)
(-0.653166 -1.29458 0)
(-0.424785 -1.20796 0)
(-0.187498 -0.891217 0)
(-0.0377356 -0.347003 0)
(-0.0193258 0.305952 0)
(-0.0918171 0.726953 0)
(-0.207603 0.974514 0)
(-0.327507 1.08642 0)
(-0.434179 1.1005 0)
(-0.524384 1.04544 0)
(-0.599601 0.940068 0)
(-0.663229 0.795198 0)
(-0.719149 0.615996 0)
(-0.7706 0.404191 0)
(-0.819278 0.160059 0)
(-0.864419 -0.115599 0)
(-0.901642 -0.419018 0)
(-0.921661 -0.739952 0)
(-0.909453 -1.05646 0)
(-0.845131 -1.32804 0)
(-0.708417 -1.48918 0)
(-0.491856 -1.45009 0)
(-0.234916 -1.11856 0)
(-0.0522166 -0.457811 0)
(-0.0258301 0.35955 0)
(-0.109994 0.833134 0)
(-0.229218 1.09126 0)
(-0.336796 1.19161 0)
(-0.417234 1.18673 0)
(-0.472534 1.11333 0)
(-0.509108 0.993849 0)
(-0.534442 0.840238 0)
(-0.555851 0.657416 0)
(-0.579659 0.445954 0)
(-0.610615 0.204115 0)
(-0.651132 -0.0704226 0)
(-0.700026 -0.378523 0)
(-0.750534 -0.716292 0)
(-0.787894 -1.06918 0)
(-0.787483 -1.40211 0)
(-0.715973 -1.64587 0)
(-0.543779 -1.68607 0)
(-0.289073 -1.37475 0)
(-0.0726535 -0.599912 0)
(-0.0388423 0.428765 0)
(-0.142791 0.951004 0)
(-0.263064 1.20089 0)
(-0.345537 1.2712 0)
(-0.381724 1.2346 0)
(-0.383035 1.13623 0)
(-0.362858 1.00115 0)
(-0.333484 0.841373 0)
(-0.305682 0.660865 0)
(-0.288595 0.458814 0)
(-0.289768 0.231635 0)
(-0.314896 -0.0257599 0)
(-0.366844 -0.318747 0)
(-0.443493 -0.650713 0)
(-0.534047 -1.01785 0)
(-0.613856 -1.39774 0)
(-0.639743 -1.72855 0)
(-0.556571 -1.88097 0)
(-0.34385 -1.6439 0)
(-0.100494 -0.780233 0)
(-0.0633764 0.528018 0)
(-0.197724 1.08449 0)
(-0.307371 1.29217 0)
(-0.338849 1.3057 0)
(-0.302406 1.2224 0)
(-0.224676 1.09358 0)
(-0.127519 0.943851 0)
(-0.0277058 0.783019 0)
(0.0615896 0.612813 0)
(0.129702 0.430632 0)
(0.167536 0.231364 0)
(0.167067 0.00807024 0)
(0.121663 -0.247884 0)
(0.0276487 -0.546286 0)
(-0.111863 -0.895264 0)
(-0.279211 -1.29143 0)
(-0.430339 -1.69499 0)
(-0.489239 -1.98326 0)
(-0.380965 -1.89251 0)
(-0.133759 -1.0051 0)
(-0.103829 0.684425 0)
(-0.273634 1.22908 0)
(-0.332652 1.33451 0)
(-0.261499 1.25848 0)
(-0.110748 1.11776 0)
(0.0740785 0.960287 0)
(0.264833 0.803945 0)
(0.443441 0.652725 0)
(0.597423 0.50445 0)
(0.717308 0.354353 0)
(0.794799 0.196321 0)
(0.821609 0.0229133 0)
(0.789025 -0.175473 0)
(0.688249 -0.41192 0)
(0.51277 -0.703809 0)
(0.26597 -1.06855 0)
(-0.0222628 -1.50252 0)
(-0.2742 -1.92373 0)
(-0.355985 -2.05943 0)
(-0.157284 -1.27883 0)
(-0.146944 0.938117 0)
(-0.320787 1.34153 0)
(-0.218833 1.249 0)
(0.0422854 1.0623 0)
(0.350721 0.876539 0)
(0.655905 0.712096 0)
(0.935885 0.571152 0)
(1.17945 0.448941 0)
(1.38037 0.338793 0)
(1.53423 0.234223 0)
(1.63648 0.12914 0)
(1.68115 0.017218 0)
(1.66007 -0.109345 0)
(1.56197 -0.262242 0)
(1.37225 -0.460736 0)
(1.07635 -0.735489 0)
(0.672223 -1.12284 0)
(0.19947 -1.6192 0)
(-0.172103 -2.0283 0)
(-0.114839 -1.56478 0)
(-0.0399675 1.20985 0)
(-0.0591008 1.25645 0)
(0.404908 0.923668 0)
(0.927816 0.67392 0)
(1.37683 0.500223 0)
(1.75005 0.374331 0)
(2.05749 0.281097 0)
(2.30556 0.209474 0)
(2.49918 0.150966 0)
(2.64159 0.0994647 0)
(2.73355 0.0504721 0)
(2.77308 0.000168959 0)
(2.75492 -0.0556321 0)
(2.66921 -0.123391 0)
(2.49907 -0.215297 0)
(2.21715 -0.357168 0)
(1.78128 -0.601621 0)
(1.1389 -1.02455 0)
(0.412972 -1.59385 0)
(0.197307 -1.59982 0)
(1.36533 0.671004 0)
(1.74636 0.594297 0)
(2.44036 0.376623 0)
(2.98565 0.236838 0)
(3.33948 0.153663 0)
(3.58124 0.101706 0)
(3.75646 0.0682894 0)
(3.8848 0.0459725 0)
(3.97687 0.0299697 0)
(4.03896 0.0173189 0)
(4.07412 0.0061889 0)
(4.08295 -0.00466605 0)
(4.06377 -0.0163808 0)
(4.01213 -0.0305751 0)
(3.91852 -0.0504327 0)
(3.76258 -0.0838246 0)
(3.49671 -0.151651 0)
(2.99305 -0.302488 0)
(2.16481 -0.591825 0)
(1.57177 -0.737196 0)
)
;

boundaryField
{
    movingWall
    {
        type            fixedValue;
        value           uniform (4.8 0 0);
    }
    fixedWalls
    {
        type            noSlip;
    }
    frontAndBack
    {
        type            empty;
    }
}


// ************************************************************************* //
