/*--------------------------------*- C++ -*----------------------------------*\
  =========                 |
  \\      /  F ield         | OpenFOAM: The Open Source CFD Toolbox
   \\    /   O peration     | Website:  https://openfoam.org
    \\  /    A nd           | Version:  8
     \\/     M anipulation  |
\*---------------------------------------------------------------------------*/
FoamFile
{
    version     2.0;
    format      ascii;
    class       volScalarField;
    location    "0.3";
    object      p;
}
// * * * * * * * * * * * * * * * * * * * * * * * * * * * * * * * * * * * * * //

dimensions      [0 2 -2 0 0 0 0];

internalField   nonuniform List<scalar> 
400
(
-2.55412e-06
-0.0140073
-0.0308581
-0.0435816
-0.048282
-0.0432755
-0.0284102
-0.00457655
0.0265869
0.0628381
0.101424
0.1392
0.172844
0.199178
0.215615
0.2207
0.214678
0.200038
0.18189
0.167994
0.0138868
-0.000565499
-0.0137336
-0.0224035
-0.0248427
-0.0198964
-0.00737273
0.0121243
0.03739
0.0667087
0.0979229
0.128543
0.155933
0.17759
0.191508
0.196588
0.193071
0.182749
0.168459
0.15427
0.0317232
0.011758
-0.00239387
-0.0102573
-0.0121999
-0.00768744
0.00330854
0.0202484
0.0421607
0.0676597
0.0949569
0.12193
0.146275
0.165744
0.178465
0.183302
0.180255
0.170484
0.154884
0.135118
0.0472179
0.0198239
0.00239045
-0.00648577
-0.00895145
-0.0050311
0.00508187
0.0208069
0.0412852
0.0653244
0.0913421
0.117379
0.141208
0.160546
0.173348
0.178169
0.174623
0.163333
0.143691
0.115992
0.0560262
0.0210112
-0.000276874
-0.0107019
-0.0139422
-0.010491
-0.000739463
0.0146799
0.0349857
0.0591258
0.0856484
0.112656
0.137866
0.15879
0.173019
0.178619
0.174698
0.161353
0.136713
0.10023
0.0548496
0.0124003
-0.0128006
-0.0248385
-0.0287511
-0.0254249
-0.0154088
0.000630048
0.0219869
0.047732
0.0765099
0.106427
0.135053
0.159565
0.177014
0.184779
0.181297
0.166066
0.136004
0.0900045
0.0408615
-0.00879887
-0.0377356
-0.0511538
-0.0553769
-0.0516472
-0.0406379
-0.02302
0.000604191
0.0294479
0.0622626
0.0971484
0.131483
0.162002
0.185046
0.197072
0.19559
0.179291
0.143692
0.0871921
0.0113147
-0.0453816
-0.0777064
-0.0920052
-0.0959288
-0.09109
-0.0782714
-0.0581101
-0.0310521
0.00232339
0.0409416
0.0829502
0.125549
0.164977
0.196701
0.215967
0.218997
0.203268
0.162399
0.0941073
-0.0367153
-0.100365
-0.135558
-0.14993
-0.152643
-0.145766
-0.130203
-0.106518
-0.0749208
-0.0356709
0.0104609
0.0618015
0.115473
0.167235
0.211552
0.242145
0.25344
0.241051
0.195789
0.114187
-0.106531
-0.177176
-0.214435
-0.227585
-0.227699
-0.217487
-0.198026
-0.169769
-0.132579
-0.0862404
-0.0310175
0.0318188
0.0995253
0.167522
0.229242
0.276572
0.301526
0.29689
0.249183
0.152745
-0.202105
-0.279924
-0.317866
-0.327604
-0.32289
-0.3074
-0.282474
-0.248408
-0.204586
-0.1501
-0.084442
-0.00815733
0.0765009
0.164932
0.249696
0.320667
0.366777
0.376689
0.330349
0.218003
-0.328705
-0.413905
-0.44991
-0.452388
-0.439152
-0.415336
-0.382655
-0.34117
-0.289592
-0.22606
-0.148955
-0.0576831
0.0465011
0.159533
0.27357
0.376605
0.453963
0.488614
0.450628
0.322693
-0.494307
-0.586532
-0.615356
-0.603735
-0.57586
-0.538953
-0.495123
-0.444005
-0.383348
-0.310002
-0.220851
-0.113665
0.0119314
0.153232
0.302906
0.447772
0.569514
0.643846
0.626569
0.486817
-0.712822
-0.809016
-0.81986
-0.782129
-0.729806
-0.672653
-0.612865
-0.549178
-0.477885
-0.394103
-0.292784
-0.169554
-0.0216885
0.150516
0.341682
0.539058
0.721734
0.857321
0.882392
0.742819
-1.01122
-1.0991
-1.06947
-0.985133
-0.89351
-0.806217
-0.724368
-0.644737
-0.561321
-0.466877
-0.353952
-0.215548
-0.0459008
0.158265
0.395459
0.656175
0.919938
1.14763
1.2531
1.14495
-1.44329
-1.48452
-1.36886
-1.20476
-1.05313
-0.923625
-0.813376
-0.715086
-0.619056
-0.514822
-0.392034
-0.240678
-0.0513898
0.183772
0.469473
0.803594
1.17207
1.53479
1.78592
1.78201
-2.11607
-2.00517
-1.71829
-1.42609
-1.18847
-1.00433
-0.86133
-0.744305
-0.637663
-0.526724
-0.397779
-0.237579
-0.0328135
0.230103
0.564445
0.980906
1.48096
2.03515
2.53923
2.79749
-3.28447
-2.7102
-2.09247
-1.61315
-1.26601
-1.02126
-0.848712
-0.719589
-0.609724
-0.499454
-0.371785
-0.210523
0.00137668
0.283683
0.660831
1.16296
1.81872
2.63551
3.58892
4.49558
-5.65193
-3.61715
-2.32365
-1.61669
-1.18157
-0.907177
-0.735436
-0.620144
-0.528298
-0.436751
-0.32717
-0.182402
0.0160711
0.292094
0.680357
1.2344
2.02844
3.17511
4.9832
7.61601
-9.90339
-4.499
-2.07792
-1.21434
-0.811126
-0.598744
-0.492687
-0.437081
-0.396785
-0.350409
-0.282406
-0.178827
-0.0238034
0.203728
0.538433
1.0456
1.85307
3.27545
6.35771
12.4293
)
;

boundaryField
{
    movingWall
    {
        type            zeroGradient;
    }
    fixedWalls
    {
        type            zeroGradient;
    }
    frontAndBack
    {
        type            empty;
    }
}


// ************************************************************************* //
