/*--------------------------------*- C++ -*----------------------------------*\
  =========                 |
  \\      /  F ield         | OpenFOAM: The Open Source CFD Toolbox
   \\    /   O peration     | Website:  https://openfoam.org
    \\  /    A nd           | Version:  8
     \\/     M anipulation  |
\*---------------------------------------------------------------------------*/
FoamFile
{
    version     2.0;
    format      ascii;
    class       surfaceScalarField;
    location    "0.3";
    object      phi;
}
// * * * * * * * * * * * * * * * * * * * * * * * * * * * * * * * * * * * * * //

dimensions      [0 3 -1 0 0 0 0];

internalField   nonuniform List<scalar> 
760
(
3.24193e-08
-3.23982e-08
-5.7741e-08
9.01587e-08
-2.789e-07
2.21158e-07
-5.90521e-07
3.1162e-07
-9.46429e-07
3.55909e-07
-1.30421e-06
3.57781e-07
-1.62761e-06
3.23396e-07
-1.88693e-06
2.59321e-07
-2.05891e-06
1.71984e-07
-2.12699e-06
6.80769e-08
-2.08226e-06
-4.4731e-08
-1.92502e-06
-1.57239e-07
-1.66643e-06
-2.58585e-07
-1.32974e-06
-3.367e-07
-9.50298e-07
-3.79438e-07
-5.73868e-07
-3.7643e-07
-2.52208e-07
-3.2166e-07
-3.56634e-08
-2.16546e-07
4.07475e-08
-7.64137e-08
4.07456e-08
-8.64168e-08
5.40199e-08
-4.42261e-07
4.46001e-07
-1.05106e-06
8.29958e-07
-1.83798e-06
1.09854e-06
-2.71076e-06
1.22869e-06
-3.57772e-06
1.22474e-06
-4.35624e-06
1.10191e-06
-4.97663e-06
8.79716e-07
-5.38412e-06
5.79468e-07
-5.54063e-06
2.24587e-07
-5.42727e-06
-1.58091e-07
-5.04727e-06
-5.37247e-07
-4.42874e-06
-8.77113e-07
-3.6262e-06
-1.13924e-06
-2.71937e-06
-1.28628e-06
-1.80783e-06
-1.28797e-06
-1.00027e-06
-1.12922e-06
-3.97324e-07
-8.1949e-07
-6.6596e-08
-4.0714e-07
-2.58527e-08
-2.27963e-07
2.81984e-07
-8.70065e-07
1.0881e-06
-1.84756e-06
1.80745e-06
-3.04812e-06
2.2991e-06
-4.3459e-06
2.52646e-06
-5.61699e-06
2.49583e-06
-6.74894e-06
2.23387e-06
-7.64615e-06
1.77693e-06
-8.23327e-06
1.16659e-06
-8.45818e-06
4.49499e-07
-8.29539e-06
-3.20883e-07
-7.74973e-06
-1.08291e-06
-6.85971e-06
-1.76714e-06
-5.69914e-06
-2.29981e-06
-4.37541e-06
-2.61e-06
-3.0226e-06
-2.64078e-06
-1.78791e-06
-2.36391e-06
-8.1128e-07
-1.79612e-06
-1.99461e-07
-1.01896e-06
-2.25314e-07
-3.5702e-07
6.39003e-07
-1.27609e-06
2.00718e-06
-2.6067e-06
3.13806e-06
-4.19046e-06
3.88286e-06
-5.86861e-06
4.2046e-06
-7.49159e-06
4.11881e-06
-8.92604e-06
3.66832e-06
-1.00592e-05
2.91012e-06
-1.08023e-05
1.90965e-06
-1.10933e-05
7.40519e-07
-1.0901e-05
-5.13204e-07
-1.02289e-05
-1.75502e-06
-9.11951e-06
-2.87652e-06
-7.657e-06
-3.76232e-06
-5.96652e-06
-4.30047e-06
-4.20813e-06
-4.39917e-06
-2.56349e-06
-4.00856e-06
-1.21533e-06
-3.14428e-06
-3.22628e-07
-1.91166e-06
-5.47942e-07
-4.73624e-07
1.11262e-06
-1.6551e-06
3.18865e-06
-3.3233e-06
4.80626e-06
-5.27004e-06
5.82961e-06
-7.30284e-06
6.23739e-06
-9.24929e-06
6.06526e-06
-1.09602e-05
5.37921e-06
-1.23112e-05
4.26117e-06
-1.32045e-05
2.80297e-06
-1.35707e-05
1.10669e-06
-1.33721e-05
-7.11872e-07
-1.26072e-05
-2.51989e-06
-1.13165e-05
-4.16724e-06
-9.58689e-06
-5.4919e-06
-7.55439e-06
-6.33297e-06
-5.40099e-06
-6.55256e-06
-3.34397e-06
-6.06559e-06
-1.61607e-06
-4.87218e-06
-4.39415e-07
-3.08832e-06
-9.87356e-07
-5.82253e-07
1.69488e-06
-2.01394e-06
4.62033e-06
-4.00599e-06
6.79831e-06
-6.29941e-06
8.12303e-06
-8.66788e-06
8.60586e-06
-1.09184e-05
8.31573e-06
-1.28897e-05
7.35052e-06
-1.44504e-05
5.82189e-06
-1.54972e-05
3.84974e-06
-1.59546e-05
1.56414e-06
-1.57776e-05
-8.88917e-07
-1.49558e-05
-3.3417e-06
-1.35209e-05
-5.6021e-06
-1.15551e-05
-7.45775e-06
-9.198e-06
-8.69003e-06
-6.65004e-06
-9.10052e-06
-4.16598e-06
-8.54965e-06
-2.03688e-06
-7.00127e-06
-5.59859e-07
-4.56534e-06
-1.54721e-06
-6.87171e-07
2.38205e-06
-2.36091e-06
6.29407e-06
-4.6645e-06
9.1019e-06
-7.28751e-06
1.0746e-05
-9.97075e-06
1.12891e-05
-1.25036e-05
1.08485e-05
-1.47174e-05
9.56437e-06
-1.64786e-05
7.58312e-06
-1.76825e-05
5.05362e-06
-1.82499e-05
2.13151e-06
-1.81273e-05
-1.01144e-06
-1.72918e-05
-4.17723e-06
-1.57592e-05
-7.13467e-06
-1.35975e-05
-9.61955e-06
-1.09405e-05
-1.1347e-05
-8.00052e-06
-1.20405e-05
-5.06952e-06
-1.14806e-05
-2.50517e-06
-9.56563e-06
-6.95034e-07
-6.37547e-06
-2.24225e-06
-7.91933e-07
3.17398e-06
-2.7032e-06
8.20534e-06
-5.30539e-06
1.17041e-05
-8.235e-06
1.36757e-05
-1.12018e-05
1.42559e-05
-1.39824e-05
1.36292e-05
-1.64075e-05
1.19895e-05
-1.83482e-05
9.52377e-06
-1.97042e-05
6.40969e-06
-2.03967e-05
2.82393e-06
-2.03647e-05
-1.04343e-06
-1.95691e-05
-4.97285e-06
-1.80024e-05
-8.70131e-06
-1.57067e-05
-1.19153e-05
-1.27963e-05
-1.42573e-05
-9.48261e-06
-1.53542e-05
-6.08954e-06
-1.48737e-05
-3.04788e-06
-1.26073e-05
-8.56091e-07
-8.56726e-06
-3.09834e-06
-8.99967e-07
4.07394e-06
-3.04734e-06
1.03527e-05
-5.93185e-06
1.45886e-05
-9.1331e-06
1.68769e-05
-1.23328e-05
1.74556e-05
-1.53026e-05
1.65989e-05
-1.7882e-05
1.45689e-05
-1.9957e-05
1.15988e-05
-2.14412e-05
7.89384e-06
-2.22622e-05
3.64497e-06
-2.23553e-05
-9.50331e-07
-2.16639e-05
-5.66429e-06
-2.01498e-05
-1.02154e-05
-1.78151e-05
-1.425e-05
-1.47353e-05
-1.73372e-05
-1.10997e-05
-1.89898e-05
-7.24925e-06
-1.87242e-05
-3.68938e-06
-1.61672e-05
-1.05438e-06
-1.12023e-05
-4.15272e-06
-1.01628e-06
5.09022e-06
-3.40225e-06
1.27387e-05
-6.54634e-06
1.77327e-05
-9.96463e-06
2.02952e-05
-1.3316e-05
2.0807e-05
-1.63788e-05
1.96616e-05
-1.90161e-05
1.72062e-05
-2.1143e-05
1.37257e-05
-2.26994e-05
9.45023e-06
-2.36303e-05
4.5759e-06
-2.38739e-05
-7.06759e-07
-2.3358e-05
-6.18011e-06
-2.20088e-05
-1.15646e-05
-1.97736e-05
-1.64852e-05
-1.66634e-05
-2.04474e-05
-1.28137e-05
-2.28394e-05
-8.55266e-06
-2.29852e-05
-4.45011e-06
-2.02697e-05
-1.30239e-06
-1.435e-05
-5.4551e-06
-1.15044e-06
6.24066e-06
-3.7844e-06
1.53726e-05
-7.15474e-06
2.1103e-05
-1.07051e-05
2.38456e-05
-1.40817e-05
2.41836e-05
-1.70883e-05
2.26683e-05
-1.96321e-05
1.975e-05
-2.16764e-05
1.57699e-05
-2.3204e-05
1.09778e-05
-2.41913e-05
5.56321e-06
-2.45905e-05
-3.07495e-07
-2.43211e-05
-6.44952e-06
-2.32724e-05
-1.26133e-05
-2.13247e-05
-1.84329e-05
-1.83964e-05
-2.33757e-05
-1.45244e-05
-2.67114e-05
-9.97345e-06
-2.75362e-05
-5.34479e-06
-2.48984e-05
-1.61552e-06
-1.80793e-05
-7.07062e-06
-1.32159e-06
7.56225e-06
-4.22461e-06
1.82757e-05
-7.7695e-06
2.46479e-05
-1.13197e-05
2.73957e-05
-1.45299e-05
2.73938e-05
-1.72595e-05
2.53979e-05
-1.9488e-05
2.19785e-05
-2.12501e-05
1.7532e-05
-2.25908e-05
1.23186e-05
-2.35343e-05
6.50671e-06
-2.40616e-05
2.19806e-07
-2.40961e-05
-6.41504e-06
-2.34977e-05
-1.32117e-05
-2.20747e-05
-1.98559e-05
-1.96271e-05
-2.58233e-05
-1.60395e-05
-3.0299e-05
-1.1436e-05
-3.21396e-05
-6.37783e-06
-2.99566e-05
-2.01486e-06
-2.24422e-05
-9.08548e-06
-1.56644e-06
9.12869e-06
-4.77518e-06
2.14844e-05
-8.4059e-06
2.82786e-05
-1.17471e-05
3.07369e-05
-1.45064e-05
3.01531e-05
-1.66459e-05
2.75374e-05
-1.8254e-05
2.35866e-05
-1.94629e-05
1.87409e-05
-2.03974e-05
1.32531e-05
-2.1144e-05
7.25328e-06
-2.1728e-05
8.03869e-07
-2.20945e-05
-6.04859e-06
-2.20915e-05
-1.32147e-05
-2.14653e-05
-2.04821e-05
-1.98849e-05
-2.74037e-05
-1.70304e-05
-3.31536e-05
-1.27825e-05
-3.63874e-05
-7.53216e-06
-3.5207e-05
-2.53122e-06
-2.74432e-05
-1.16167e-05
-1.95166e-06
1.10803e-05
-5.51083e-06
2.50436e-05
-9.05623e-06
3.1824e-05
-1.18509e-05
3.35316e-05
-1.37435e-05
3.20456e-05
-1.48689e-05
2.86629e-05
-1.54677e-05
2.41855e-05
-1.57901e-05
1.90632e-05
-1.60497e-05
1.35127e-05
-1.64015e-05
7.60507e-06
-1.69254e-05
1.32777e-06
-1.7607e-05
-5.36699e-06
-1.83113e-05
-1.25104e-05
-1.87544e-05
-2.00391e-05
-1.84919e-05
-2.76662e-05
-1.69698e-05
-3.46756e-05
-1.37136e-05
-3.96437e-05
-8.74051e-06
-4.018e-05
-3.20842e-06
-3.29753e-05
-1.48251e-05
-2.58721e-06
1.36676e-05
-6.501e-06
2.89574e-05
-9.60361e-06
3.49266e-05
-1.12973e-05
3.52253e-05
-1.17319e-05
3.24802e-05
-1.1307e-05
2.8238e-05
-1.04504e-05
2.33288e-05
-9.53187e-06
1.81447e-05
-8.8418e-06
1.28226e-05
-8.59051e-06
7.35378e-06
-8.90884e-06
1.64611e-06
-9.83629e-06
-4.43955e-06
-1.12904e-05
-1.10563e-05
-1.30149e-05
-1.83146e-05
-1.45174e-05
-2.61636e-05
-1.50413e-05
-3.41517e-05
-1.36788e-05
-4.10062e-05
-9.80986e-06
-4.4049e-05
-4.09281e-06
-3.86923e-05
-1.89179e-05
-3.61261e-06
1.72802e-05
-7.67724e-06
3.3022e-05
-9.58281e-06
3.68322e-05
-9.28319e-06
3.49257e-05
-7.47612e-06
3.06731e-05
-4.90597e-06
2.56679e-05
-2.17927e-06
2.06021e-05
2.57667e-07
1.57078e-05
2.08852e-06
1.09918e-05
3.08938e-06
6.35292e-06
3.10455e-06
1.63093e-06
2.04287e-06
-3.37787e-06
-9.76655e-08
-8.91573e-06
-3.1658e-06
-1.52464e-05
-6.74541e-06
-2.2584e-05
-1.00144e-05
-3.08828e-05
-1.16753e-05
-3.93453e-05
-1.02284e-05
-4.54958e-05
-5.16053e-06
-4.37602e-05
-2.40785e-05
-5.05766e-06
2.23378e-05
-8.38161e-06
3.6346e-05
-7.58902e-06
3.60396e-05
-3.99474e-06
3.13314e-05
9.12179e-07
2.57662e-05
6.08373e-06
2.04963e-05
1.08562e-05
1.58296e-05
1.48294e-05
1.17346e-05
1.77594e-05
8.06175e-06
1.9482e-05
4.63037e-06
1.98658e-05
1.24717e-06
1.87921e-05
-2.30421e-06
1.61626e-05
-6.28624e-06
1.19508e-05
-1.10346e-05
6.33034e-06
-1.69636e-05
-8.36368e-08
-2.44688e-05
-5.90219e-06
-3.35268e-05
-8.74174e-06
-4.26563e-05
-6.0785e-06
-4.64235e-05
-3.0157e-05
-6.29428e-06
2.86321e-05
-6.06103e-06
3.61127e-05
2.86524e-08
2.99499e-05
8.32354e-06
2.30366e-05
1.67426e-05
1.73472e-05
2.43347e-05
1.29042e-05
3.06965e-05
9.46782e-06
3.5681e-05
6.7501e-06
3.92438e-05
4.49894e-06
4.13592e-05
2.515e-06
4.19746e-05
6.31735e-07
4.09856e-05
-1.31527e-06
3.82216e-05
-3.52216e-06
3.3456e-05
-6.26901e-06
2.64798e-05
-9.98739e-06
1.73304e-05
-1.53193e-05
6.82786e-06
-2.30243e-05
-2.47605e-06
-3.33523e-05
-5.61587e-06
-4.32836e-05
-3.57728e-05
-2.85857e-06
3.14907e-05
7.64902e-06
2.56051e-05
2.16957e-05
1.59033e-05
3.44577e-05
1.02746e-05
4.49429e-05
6.86192e-06
5.32018e-05
4.6453e-06
5.95073e-05
3.1623e-06
6.41349e-05
2.12258e-06
6.72952e-05
1.33861e-06
6.91172e-05
6.93006e-07
6.96418e-05
1.07111e-07
6.88154e-05
-4.8883e-07
6.64622e-05
-1.16898e-06
6.22478e-05
-2.05461e-06
5.56272e-05
-3.36675e-06
4.5853e-05
-5.54521e-06
3.22861e-05
-9.45734e-06
1.55791e-05
-1.66453e-05
8.89726e-07
-2.85943e-05
-3.48831e-05
3.14907e-05
5.70958e-05
7.29991e-05
8.32736e-05
9.01356e-05
9.47809e-05
9.79432e-05
0.000100066
0.000101404
0.000102097
0.000102204
0.000101716
0.000100547
9.8492e-05
9.51253e-05
8.95801e-05
8.01227e-05
6.34774e-05
3.48831e-05
)
;

boundaryField
{
    movingWall
    {
        type            calculated;
        value           uniform 0;
    }
    fixedWalls
    {
        type            calculated;
        value           uniform 0;
    }
    frontAndBack
    {
        type            empty;
        value           nonuniform List<scalar> 0();
    }
}


// ************************************************************************* //
