/*--------------------------------*- C++ -*----------------------------------*\
  =========                 |
  \\      /  F ield         | OpenFOAM: The Open Source CFD Toolbox
   \\    /   O peration     | Website:  https://openfoam.org
    \\  /    A nd           | Version:  8
     \\/     M anipulation  |
\*---------------------------------------------------------------------------*/
FoamFile
{
    version     2.0;
    format      ascii;
    class       volVectorField;
    location    "0.3";
    object      U;
}
// * * * * * * * * * * * * * * * * * * * * * * * * * * * * * * * * * * * * * //

dimensions      [0 1 -1 0 0 0 0];

internalField   nonuniform List<vector> 
400
(
(0.000590544 -0.000585638 0)
(0.000272736 0.000291599 0)
(-0.00292593 0.00135876 0)
(-0.00842455 0.00209766 0)
(-0.0152804 0.00246458 0)
(-0.0225843 0.00250594 0)
(-0.0295396 0.00228029 0)
(-0.0354828 0.00184151 0)
(-0.0398823 0.0012363 0)
(-0.0423366 0.000509923 0)
(-0.0425858 -0.000285952 0)
(-0.0405382 -0.0010871 0)
(-0.0363036 -0.0018143 0)
(-0.0302245 -0.00237587 0)
(-0.022892 -0.00267557 0)
(-0.0151322 -0.00262643 0)
(-0.00794677 -0.0021711 0)
(-0.00239648 -0.00130867 0)
(0.000592024 -0.000167848 0)
(0.000672897 0.000655881 0)
(-0.000230569 -0.000333059 0)
(-0.00401591 0.00404679 0)
(-0.0138751 0.00869246 0)
(-0.0282756 0.0119729 0)
(-0.0453159 0.0135978 0)
(-0.0631267 0.0136509 0)
(-0.0799444 0.0123347 0)
(-0.0942298 0.00988592 0)
(-0.104728 0.00654867 0)
(-0.110502 0.00258362 0)
(-0.110968 -0.00171065 0)
(-0.105958 -0.00598045 0)
(-0.0957761 -0.00981443 0)
(-0.081248 -0.0127623 0)
(-0.0637315 -0.0143786 0)
(-0.0450582 -0.014293 0)
(-0.0273671 -0.0123083 0)
(-0.0128208 -0.00852007 0)
(-0.00332608 -0.00354324 0)
(-2.86987e-05 0.000672158 0)
(-0.00133908 0.00280384 0)
(-0.00912581 0.0139892 0)
(-0.0257065 0.024554 0)
(-0.0481729 0.0319277 0)
(-0.0737855 0.0354621 0)
(-0.100052 0.0352375 0)
(-0.124594 0.0316513 0)
(-0.145303 0.0252395 0)
(-0.160456 0.0166059 0)
(-0.168763 0.00642274 0)
(-0.169432 -0.00453914 0)
(-0.16224 -0.0153855 0)
(-0.147609 -0.0251038 0)
(-0.126662 -0.0326141 0)
(-0.101232 -0.0368764 0)
(-0.0737842 -0.0370588 0)
(-0.0471925 -0.0327601 0)
(-0.0243799 -0.0242652 0)
(-0.00817523 -0.0129 0)
(-0.00103848 -0.00197212 0)
(-0.00232316 0.00869233 0)
(-0.0139277 0.0296987 0)
(-0.0370283 0.0478 0)
(-0.0671056 0.0600123 0)
(-0.100511 0.0655241 0)
(-0.134221 0.0645058 0)
(-0.165406 0.0576213 0)
(-0.191581 0.0457826 0)
(-0.210713 0.0300436 0)
(-0.22128 0.0115933 0)
(-0.222331 -0.00820686 0)
(-0.21357 -0.0277911 0)
(-0.195443 -0.0454024 0)
(-0.16921 -0.0591779 0)
(-0.13698 -0.0673276 0)
(-0.101657 -0.0684118 0)
(-0.0667075 -0.0617039 0)
(-0.0357943 -0.0475833 0)
(-0.0128373 -0.0279727 0)
(-0.00193587 -0.00720702 0)
(-0.00318107 0.0170326 0)
(-0.0183432 0.0507709 0)
(-0.0476818 0.0778726 0)
(-0.0850202 0.0954229 0)
(-0.125751 0.102759 0)
(-0.166338 0.100332 0)
(-0.203594 0.0891897 0)
(-0.234764 0.0706995 0)
(-0.257619 0.0464221 0)
(-0.270472 0.0181107 0)
(-0.272238 -0.012236 0)
(-0.262502 -0.0423261 0)
(-0.24163 -0.0695839 0)
(-0.210878 -0.091258 0)
(-0.172476 -0.104662 0)
(-0.129643 -0.107563 0)
(-0.0864025 -0.0986896 0)
(-0.0472392 -0.0782832 0)
(-0.0173694 -0.048622 0)
(-0.00274276 -0.0148193 0)
(-0.00396412 0.0276137 0)
(-0.0224899 0.0769495 0)
(-0.0578123 0.114537 0)
(-0.102113 0.137902 0)
(-0.149809 0.146862 0)
(-0.196872 0.142392 0)
(-0.23982 0.126085 0)
(-0.275723 0.099852 0)
(-0.302235 0.0658021 0)
(-0.317567 0.0262629 0)
(-0.320499 -0.016135 0)
(-0.310452 -0.0583729 0)
(-0.287602 -0.0970251 0)
(-0.25305 -0.128364 0)
(-0.208989 -0.148639 0)
(-0.158834 -0.154566 0)
(-0.107137 -0.144007 0)
(-0.0593098 -0.116718 0)
(-0.0220964 -0.0750437 0)
(-0.0035555 -0.0247687 0)
(-0.00471893 0.0403187 0)
(-0.0265025 0.108039 0)
(-0.0676089 0.157559 0)
(-0.118576 0.187166 0)
(-0.172847 0.197504 0)
(-0.225941 0.190358 0)
(-0.274159 0.168051 0)
(-0.314499 0.133139 0)
(-0.344597 0.0883055 0)
(-0.362625 0.0364248 0)
(-0.367251 -0.019299 0)
(-0.357679 -0.0751782 0)
(-0.333789 -0.126958 0)
(-0.296352 -0.169876 0)
(-0.247325 -0.198937 0)
(-0.190141 -0.209484 0)
(-0.129798 -0.198068 0)
(-0.0727032 -0.163473 0)
(-0.0274033 -0.107734 0)
(-0.00447919 -0.0372356 0)
(-0.00548396 0.0551094 0)
(-0.0305003 0.143913 0)
(-0.0772312 0.206695 0)
(-0.134506 0.242834 0)
(-0.194793 0.254199 0)
(-0.253231 0.24371 0)
(-0.306027 0.214642 0)
(-0.350246 0.170304 0)
(-0.383644 0.11396 0)
(-0.404458 0.0489623 0)
(-0.411293 -0.0210282 0)
(-0.403119 -0.0917842 0)
(-0.379408 -0.158317 0)
(-0.340406 -0.214827 0)
(-0.287564 -0.254915 0)
(-0.224051 -0.272179 0)
(-0.155096 -0.261278 0)
(-0.0880875 -0.219343 0)
(-0.0336851 -0.147514 0)
(-0.00562201 -0.0526262 0)
(-0.00629774 0.0720148 0)
(-0.0346027 0.184515 0)
(-0.0868138 0.261665 0)
(-0.149888 0.304358 0)
(-0.215307 0.316173 0)
(-0.27795 0.30157 0)
(-0.334117 0.265036 0)
(-0.381149 0.210742 0)
(-0.417115 0.142526 0)
(-0.440483 0.0641016 0)
(-0.4499 -0.0205942 0)
(-0.444132 -0.107012 0)
(-0.422158 -0.189627 0)
(-0.383488 -0.261707 0)
(-0.328725 -0.315356 0)
(-0.260337 -0.342049 0)
(-0.183376 -0.333833 0)
(-0.106019 -0.285214 0)
(-0.041339 -0.195509 0)
(-0.00710306 -0.0715731 0)
(-0.00721881 0.0911416 0)
(-0.0389822 0.22985 0)
(-0.0965285 0.322099 0)
(-0.164633 0.370883 0)
(-0.233783 0.382165 0)
(-0.298791 0.362457 0)
(-0.356332 0.317765 0)
(-0.404319 0.253244 0)
(-0.441413 0.173263 0)
(-0.466545 0.0817419 0)
(-0.478587 -0.0173597 0)
(-0.476196 -0.119487 0)
(-0.45784 -0.218912 0)
(-0.422102 -0.308235 0)
(-0.368333 -0.378128 0)
(-0.297703 -0.41763 0)
(-0.214395 -0.415353 0)
(-0.126869 -0.361841 0)
(-0.0507816 -0.253067 0)
(-0.00907156 -0.0949465 0)
(-0.00836178 0.112731 0)
(-0.0439579 0.280028 0)
(-0.106689 0.387462 0)
(-0.178642 0.441075 0)
(-0.249332 0.450175 0)
(-0.31385 0.423998 0)
(-0.369663 0.370426 0)
(-0.41566 0.295705 0)
(-0.451451 0.204663 0)
(-0.476739 0.10122 0)
(-0.490878 -0.0109643 0)
(-0.492603 -0.127745 0)
(-0.479955 -0.243678 0)
(-0.450477 -0.351178 0)
(-0.401879 -0.439809 0)
(-0.333287 -0.496083 0)
(-0.246983 -0.504353 0)
(-0.150703 -0.449458 0)
(-0.0624794 -0.321641 0)
(-0.0117406 -0.123894 0)
(-0.00996112 0.137295 0)
(-0.0501392 0.335341 0)
(-0.117867 0.456958 0)
(-0.1918 0.51286 0)
(-0.260665 0.51713 0)
(-0.320423 0.482587 0)
(-0.369954 0.419359 0)
(-0.409645 0.33484 0)
(-0.440473 0.234185 0)
(-0.463261 0.121052 0)
(-0.478149 -0.00156655 0)
(-0.484237 -0.130429 0)
(-0.479353 -0.261005 0)
(-0.460064 -0.386258 0)
(-0.422173 -0.495346 0)
(-0.361992 -0.572585 0)
(-0.278522 -0.597497 0)
(-0.17705 -0.547176 0)
(-0.0769817 -0.402564 0)
(-0.0154446 -0.159931 0)
(-0.0124844 0.165891 0)
(-0.0586263 0.396386 0)
(-0.130948 0.529311 0)
(-0.203777 0.582999 0)
(-0.265656 0.578422 0)
(-0.314469 0.532981 0)
(-0.351389 0.459342 0)
(-0.378914 0.365958 0)
(-0.399799 0.258061 0)
(-0.416291 0.138728 0)
(-0.429607 0.00990253 0)
(-0.439537 -0.126582 0)
(-0.444072 -0.267809 0)
(-0.439129 -0.408259 0)
(-0.418657 -0.537835 0)
(-0.375594 -0.639681 0)
(-0.304103 -0.688607 0)
(-0.204439 -0.652021 0)
(-0.0949202 -0.496639 0)
(-0.0207332 -0.20511 0)
(-0.0168227 0.200605 0)
(-0.071238 0.464099 0)
(-0.1469 0.602212 0)
(-0.213227 0.646325 0)
(-0.2602 0.627236 0)
(-0.289401 0.567877 0)
(-0.305435 0.483404 0)
(-0.313506 0.382931 0)
(-0.318403 0.27132 0)
(-0.323902 0.150685 0)
(-0.332432 0.021579 0)
(-0.344755 -0.115974 0)
(-0.359507 -0.261307 0)
(-0.37261 -0.411457 0)
(-0.376769 -0.558659 0)
(-0.3616 -0.686818 0)
(-0.31517 -0.767473 0)
(-0.229413 -0.75742 0)
(-0.116829 -0.603275 0)
(-0.0284876 -0.262269 0)
(-0.0245337 0.245296 0)
(-0.0905148 0.539376 0)
(-0.165607 0.671041 0)
(-0.215576 0.694441 0)
(-0.235591 0.653724 0)
(-0.233615 0.577636 0)
(-0.218869 0.482998 0)
(-0.199521 0.378624 0)
(-0.182207 0.268276 0)
(-0.171931 0.152674 0)
(-0.172127 0.0307632 0)
(-0.184587 -0.0993907 0)
(-0.209069 -0.23969 0)
(-0.242454 -0.390562 0)
(-0.277548 -0.548315 0)
(-0.301871 -0.700485 0)
(-0.297338 -0.818772 0)
(-0.244436 -0.851033 0)
(-0.142257 -0.718687 0)
(-0.0398909 -0.335174 0)
(-0.0377795 0.306753 0)
(-0.118398 0.621413 0)
(-0.181932 0.726042 0)
(-0.197579 0.71364 0)
(-0.173144 0.644222 0)
(-0.126081 0.5506 0)
(-0.070614 0.448993 0)
(-0.0171626 0.346171 0)
(0.0268206 0.243791 0)
(0.056074 0.140777 0)
(0.0668756 0.0345035 0)
(0.0567216 -0.0786513 0)
(0.0244973 -0.202895 0)
(-0.0286928 -0.342212 0)
(-0.0978071 -0.498275 0)
(-0.171131 -0.665558 0)
(-0.226939 -0.821653 0)
(-0.23347 -0.911949 0)
(-0.166725 -0.832652 0)
(-0.0555186 -0.428711 0)
(-0.057417 0.397176 0)
(-0.150142 0.702537 0)
(-0.174498 0.745666 0)
(-0.125325 0.681141 0)
(-0.0345334 0.580608 0)
(0.0702509 0.474422 0)
(0.172151 0.373871 0)
(0.261122 0.281341 0)
(0.331137 0.195417 0)
(0.378385 0.113145 0)
(0.400067 0.030771 0)
(0.393731 -0.0561965 0)
(0.357104 -0.153206 0)
(0.288571 -0.266797 0)
(0.188792 -0.403864 0)
(0.0643289 -0.568181 0)
(-0.0659451 -0.750417 0)
(-0.163649 -0.907059 0)
(-0.173841 -0.922499 0)
(-0.0714301 -0.549613 0)
(-0.0724725 0.531372 0)
(-0.153251 0.752399 0)
(-0.0778898 0.685445 0)
(0.0786626 0.562798 0)
(0.252417 0.443535 0)
(0.4154 0.341232 0)
(0.556189 0.256809 0)
(0.67016 0.186744 0)
(0.75585 0.126619 0)
(0.81284 0.0723036 0)
(0.840514 0.0199339 0)
(0.837404 -0.0345436 0)
(0.800786 -0.0960517 0)
(0.726549 -0.171314 0)
(0.609807 -0.26979 0)
(0.447596 -0.403367 0)
(0.245156 -0.580854 0)
(0.0294824 -0.789152 0)
(-0.117225 -0.937452 0)
(-0.0653407 -0.693539 0)
(0.00362914 0.648057 0)
(0.0157014 0.677939 0)
(0.280625 0.491728 0)
(0.567588 0.344791 0)
(0.803779 0.242613 0)
(0.990309 0.17098 0)
(1.13488 0.120104 0)
(1.24335 0.0827049 0)
(1.32059 0.0535512 0)
(1.37007 0.0290329 0)
(1.39355 0.0064835 0)
(1.39097 -0.0164725 0)
(1.36016 -0.0426471 0)
(1.29616 -0.076226 0)
(1.1904 -0.124427 0)
(1.03005 -0.200073 0)
(0.797039 -0.324086 0)
(0.475141 -0.521337 0)
(0.137835 -0.771158 0)
(0.0632441 -0.750889 0)
(0.704726 0.344769 0)
(0.920129 0.30343 0)
(1.29263 0.185995 0)
(1.57257 0.111067 0)
(1.7449 0.067741 0)
(1.8563 0.0419911 0)
(1.93214 0.0263105 0)
(1.98382 0.0163564 0)
(2.01774 0.00954637 0)
(2.03766 0.00438226 0)
(2.04554 -4.78788e-05 0)
(2.04185 -0.00440673 0)
(2.02572 -0.00943269 0)
(1.99441 -0.0162619 0)
(1.94201 -0.0271575 0)
(1.85661 -0.0470383 0)
(1.71086 -0.0865605 0)
(1.44188 -0.166465 0)
(1.03091 -0.304791 0)
(0.757506 -0.363533 0)
)
;

boundaryField
{
    movingWall
    {
        type            fixedValue;
        value           uniform (2.4 0 0);
    }
    fixedWalls
    {
        type            noSlip;
    }
    frontAndBack
    {
        type            empty;
    }
}


// ************************************************************************* //
