/*--------------------------------*- C++ -*----------------------------------*\
  =========                 |
  \\      /  F ield         | OpenFOAM: The Open Source CFD Toolbox
   \\    /   O peration     | Website:  https://openfoam.org
    \\  /    A nd           | Version:  8
     \\/     M anipulation  |
\*---------------------------------------------------------------------------*/
FoamFile
{
    version     2.0;
    format      ascii;
    class       surfaceScalarField;
    location    "0.4";
    object      phi;
}
// * * * * * * * * * * * * * * * * * * * * * * * * * * * * * * * * * * * * * //

dimensions      [0 3 -1 0 0 0 0];

internalField   nonuniform List<scalar> 
760
(
2.48477e-08
-2.48284e-08
-4.19983e-08
6.68457e-08
-2.07867e-07
1.65868e-07
-4.42663e-07
2.34797e-07
-7.11335e-07
2.68672e-07
-9.81283e-07
2.69949e-07
-1.22457e-06
2.43288e-07
-1.41854e-06
1.9397e-07
-1.54586e-06
1.27315e-07
-1.59466e-06
4.87991e-08
-1.55909e-06
-3.55701e-08
-1.44015e-06
-1.18933e-07
-1.24667e-06
-1.93488e-07
-9.95933e-07
-2.50733e-07
-7.13802e-07
-2.82131e-07
-4.33545e-07
-2.80258e-07
-1.93025e-07
-2.40521e-07
-2.96624e-08
-1.63364e-07
2.95153e-08
-5.91787e-08
2.95148e-08
-6.35146e-08
3.86861e-08
-3.28906e-07
3.32236e-07
-7.8555e-07
6.22512e-07
-1.3777e-06
8.26946e-07
-2.03535e-06
9.26318e-07
-2.68831e-06
9.22916e-07
-3.27333e-06
8.28301e-07
-3.73746e-06
6.58105e-07
-4.03987e-06
4.29723e-07
-4.15306e-06
1.6199e-07
-4.06436e-06
-1.24268e-07
-3.77761e-06
-4.05692e-07
-3.31467e-06
-6.5643e-07
-2.71622e-06
-8.49182e-07
-2.04081e-06
-9.57534e-07
-1.36128e-06
-9.59789e-07
-7.57375e-07
-8.44429e-07
-3.03846e-07
-6.16892e-07
-5.24303e-08
-3.10594e-07
-2.29163e-08
-1.68945e-07
2.07631e-07
-6.48498e-07
8.11788e-07
-1.38185e-06
1.35586e-06
-2.28501e-06
1.7301e-06
-3.26233e-06
1.90364e-06
-4.219e-06
1.87958e-06
-5.06902e-06
1.67832e-06
-5.73991e-06
1.329e-06
-6.17553e-06
8.65349e-07
-6.33821e-06
3.24665e-07
-6.21077e-06
-2.51705e-07
-5.79872e-06
-8.17744e-07
-5.13205e-06
-1.3231e-06
-4.26603e-06
-1.71521e-06
-3.27975e-06
-1.94381e-06
-2.27137e-06
-1.96816e-06
-1.34884e-06
-1.76696e-06
-6.1574e-07
-1.34999e-06
-1.53014e-07
-7.7332e-07
-1.75931e-07
-2.65111e-07
4.72741e-07
-9.5237e-07
1.49905e-06
-1.95155e-06
2.35505e-06
-3.14369e-06
2.92224e-06
-4.40775e-06
3.1677e-06
-5.62904e-06
3.10087e-06
-6.70545e-06
2.75473e-06
-7.55158e-06
2.17513e-06
-8.10136e-06
1.41513e-06
-8.3102e-06
5.33507e-07
-8.15721e-06
-4.04691e-07
-7.64763e-06
-1.32733e-06
-6.81508e-06
-2.15565e-06
-5.72298e-06
-2.80731e-06
-4.46374e-06
-3.20306e-06
-3.15445e-06
-3.27745e-06
-1.92788e-06
-2.99353e-06
-9.18572e-07
-2.3593e-06
-2.45894e-07
-1.446e-06
-4.21825e-07
-3.52375e-07
8.25115e-07
-1.23767e-06
2.38434e-06
-2.49273e-06
3.6101e-06
-3.9603e-06
4.38982e-06
-5.49292e-06
4.70032e-06
-6.95781e-06
4.56575e-06
-8.24044e-06
4.03736e-06
-9.24665e-06
3.18134e-06
-9.90395e-06
2.07243e-06
-1.01628e-05
7.92377e-07
-9.99854e-06
-5.68966e-07
-9.4138e-06
-1.91208e-06
-8.44171e-06
-3.12773e-06
-7.14864e-06
-4.10038e-06
-5.63535e-06
-4.71635e-06
-4.03483e-06
-4.87798e-06
-2.50507e-06
-4.5233e-06
-1.21618e-06
-3.64819e-06
-3.33296e-07
-2.32888e-06
-7.5512e-07
-4.34594e-07
1.25971e-06
-1.51097e-06
3.46072e-06
-3.01424e-06
5.11337e-06
-4.7474e-06
6.12297e-06
-6.53589e-06
6.48881e-06
-8.23017e-06
6.26003e-06
-9.7061e-06
5.51329e-06
-1.08641e-05
4.33935e-06
-1.16281e-05
2.83645e-06
-1.19452e-05
1.10943e-06
-1.17863e-05
-7.27823e-07
-1.11492e-05
-2.54921e-06
-1.00622e-05
-4.21477e-06
-8.58934e-06
-5.57321e-06
-6.83506e-06
-6.47063e-06
-4.94554e-06
-6.7675e-06
-3.10503e-06
-6.3638e-06
-1.52443e-06
-5.22879e-06
-4.22211e-07
-3.4311e-06
-1.17733e-06
-5.15543e-07
1.77525e-06
-1.78009e-06
4.72527e-06
-3.52596e-06
6.85924e-06
-5.51493e-06
8.11194e-06
-7.54545e-06
8.51934e-06
-9.45324e-06
8.16782e-06
-1.11079e-05
7.16797e-06
-1.24084e-05
5.63979e-06
-1.32782e-05
3.7063e-06
-1.3663e-05
1.49416e-06
-1.35292e-05
-8.61578e-07
-1.28671e-05
-3.21133e-06
-1.16955e-05
-5.38638e-06
-1.007e-05
-7.19867e-06
-8.0922e-06
-8.44842e-06
-5.91706e-06
-8.94263e-06
-3.75472e-06
-8.52615e-06
-1.86193e-06
-7.12158e-06
-5.20256e-07
-4.77277e-06
-1.69759e-06
-5.98506e-07
2.37376e-06
-2.05204e-06
6.1788e-06
-4.03528e-06
8.84248e-06
-6.26631e-06
1.0343e-05
-8.51742e-06
1.07704e-05
-1.06131e-05
1.02635e-05
-1.24218e-05
8.97669e-06
-1.38464e-05
7.06437e-06
-1.48149e-05
4.67484e-06
-1.52744e-05
1.95364e-06
-1.51878e-05
-9.48174e-07
-1.45355e-05
-3.8636e-06
-1.33217e-05
-6.60017e-06
-1.15856e-05
-8.93482e-06
-9.41641e-06
-1.06176e-05
-6.96968e-06
-1.13894e-05
-4.4776e-06
-1.10182e-05
-2.24683e-06
-9.35235e-06
-6.35e-07
-6.3846e-06
-2.33259e-06
-6.8667e-07
3.06043e-06
-2.33318e-06
7.82531e-06
-4.54654e-06
1.10558e-05
-6.99692e-06
1.27933e-05
-9.43221e-06
1.32057e-05
-1.16716e-05
1.25028e-05
-1.35903e-05
1.08954e-05
-1.51032e-05
8.57729e-06
-1.61499e-05
5.7215e-06
-1.66839e-05
2.4876e-06
-1.66667e-05
-9.6532e-07
-1.60679e-05
-4.46239e-06
-1.48715e-05
-7.79665e-06
-1.30901e-05
-1.07162e-05
-1.07877e-05
-1.292e-05
-8.10598e-06
-1.40711e-05
-5.28949e-06
-1.38347e-05
-2.69559e-06
-1.19463e-05
-7.74094e-07
-8.30609e-06
-3.10668e-06
-7.84331e-07
3.84476e-06
-2.63122e-06
9.6722e-06
-5.06237e-06
1.3487e-05
-7.69369e-06
1.54247e-05
-1.02526e-05
1.57647e-05
-1.25627e-05
1.48129e-05
-1.45179e-05
1.28506e-05
-1.60563e-05
1.01157e-05
-1.71389e-05
6.80408e-06
-1.77333e-05
3.08195e-06
-1.78041e-05
-8.94493e-07
-1.73104e-05
-4.95604e-06
-1.62114e-05
-8.89574e-06
-1.44822e-05
-1.24453e-05
-1.21436e-05
-1.52586e-05
-9.3018e-06
-1.69129e-05
-6.19418e-06
-1.69423e-05
-3.22247e-06
-1.4918e-05
-9.46054e-07
-1.05825e-05
-4.05273e-06
-8.99052e-07
4.74381e-06
-2.95854e-06
1.17317e-05
-5.58566e-06
1.61141e-05
-8.33436e-06
1.81734e-05
-1.09201e-05
1.83504e-05
-1.31866e-05
1.70794e-05
-1.50632e-05
1.47273e-05
-1.6527e-05
1.15795e-05
-1.75728e-05
7.84983e-06
-1.81921e-05
3.70124e-06
-1.83597e-05
-7.2687e-07
-1.80275e-05
-5.28822e-06
-1.71274e-05
-9.79589e-06
-1.55867e-05
-1.3986e-05
-1.33618e-05
-1.74835e-05
-1.0493e-05
-1.97817e-05
-7.17694e-06
-2.02584e-05
-3.83899e-06
-1.82559e-05
-1.16169e-06
-1.32598e-05
-5.21443e-06
-1.04523e-06
5.78904e-06
-3.33665e-06
1.40231e-05
-6.12042e-06
1.88979e-05
-8.88281e-06
2.09358e-05
-1.13455e-05
2.0813e-05
-1.33977e-05
1.91316e-05
-1.50279e-05
1.63575e-05
-1.62705e-05
1.28221e-05
-1.71685e-05
8.74789e-06
-1.77487e-05
4.28144e-06
-1.8005e-05
-4.7058e-07
-1.78888e-05
-5.40445e-06
-1.73068e-05
-1.03779e-05
-1.61321e-05
-1.51607e-05
-1.42363e-05
-1.93793e-05
-1.15552e-05
-2.24628e-05
-8.19276e-06
-2.36208e-05
-4.55199e-06
-2.18967e-05
-1.43647e-06
-1.63753e-05
-6.6509e-06
-1.24992e-06
7.03896e-06
-3.80025e-06
1.65734e-05
-6.66656e-06
2.17642e-05
-9.27387e-06
2.35431e-05
-1.13879e-05
2.2927e-05
-1.29828e-05
2.07266e-05
-1.41365e-05
1.75112e-05
-1.49608e-05
1.36464e-05
-1.55598e-05
9.34681e-06
-1.60047e-05
4.72638e-06
-1.63179e-05
-1.57369e-07
-1.64604e-05
-5.26196e-06
-1.6323e-05
-1.05152e-05
-1.57271e-05
-1.57566e-05
-1.44466e-05
-2.06598e-05
-1.22724e-05
-2.4637e-05
-9.14449e-06
-2.67488e-05
-5.35746e-06
-2.56837e-05
-1.79407e-06
-1.99387e-05
-8.44497e-06
-1.56157e-06
8.60054e-06
-4.39586e-06
1.94077e-05
-7.19709e-06
2.45654e-05
-9.37332e-06
2.57193e-05
-1.08079e-05
2.43616e-05
-1.16177e-05
2.15365e-05
-1.20036e-05
1.78971e-05
-1.21701e-05
1.38129e-05
-1.22874e-05
9.46412e-06
-1.24742e-05
4.91311e-06
-1.27866e-05
1.55081e-07
-1.3207e-05
-4.84159e-06
-1.36279e-05
-1.00943e-05
-1.38375e-05
-1.55471e-05
-1.35178e-05
-2.09796e-05
-1.2288e-05
-2.58667e-05
-9.84047e-06
-2.91963e-05
-6.22243e-06
-2.93018e-05
-2.27019e-06
-2.38909e-05
-1.07152e-05
-2.05871e-06
1.06592e-05
-5.15707e-06
2.25061e-05
-7.58913e-06
2.69975e-05
-8.88444e-06
2.70146e-05
-9.17404e-06
2.46511e-05
-8.78937e-06
2.11518e-05
-8.07922e-06
1.7187e-05
-7.33875e-06
1.30724e-05
-6.79192e-06
8.91729e-06
-6.5929e-06
4.71409e-06
-6.82841e-06
3.90588e-07
-7.51122e-06
-4.15877e-06
-8.56109e-06
-9.0444e-06
-9.77176e-06
-1.43364e-05
-1.07743e-05
-1.99771e-05
-1.10279e-05
-2.56131e-05
-9.91133e-06
-3.03128e-05
-7.03283e-06
-3.21803e-05
-2.90796e-06
-2.80158e-05
-1.36231e-05
-2.83539e-06
1.34946e-05
-5.99791e-06
2.56686e-05
-7.44198e-06
2.84415e-05
-7.15021e-06
2.67228e-05
-5.69344e-06
2.31944e-05
-3.67418e-06
1.91326e-05
-1.57553e-06
1.50883e-05
2.56465e-07
1.12404e-05
1.5863e-06
7.58745e-06
2.25718e-06
4.04321e-06
2.17018e-06
4.77585e-07
1.28028e-06
-3.26887e-06
-3.86554e-07
-7.37756e-06
-2.68853e-06
-1.20344e-05
-5.2928e-06
-1.73728e-05
-7.58662e-06
-2.33193e-05
-8.64782e-06
-2.92516e-05
-7.45148e-06
-3.33766e-05
-3.71018e-06
-3.17571e-05
-1.73333e-05
-3.88728e-06
1.73819e-05
-6.3684e-06
2.81497e-05
-5.64529e-06
2.77184e-05
-2.77641e-06
2.3854e-05
1.05301e-06
1.9365e-05
5.01602e-06
1.51696e-05
8.60074e-06
1.15036e-05
1.1511e-05
8.33023e-06
1.35772e-05
5.52123e-06
1.46939e-05
2.92647e-06
1.47828e-05
3.88709e-07
1.37777e-05
-2.26374e-06
1.1632e-05
-5.2319e-06
8.35967e-06
-8.7621e-06
4.12879e-06
-1.31419e-05
-5.70991e-07
-1.86195e-05
-4.70849e-06
-2.51141e-05
-6.58661e-06
-3.14985e-05
-4.46769e-06
-3.3876e-05
-2.1801e-05
-4.68838e-06
2.20703e-05
-4.29895e-06
2.77603e-05
5.40614e-07
2.28789e-05
6.98901e-06
1.74056e-05
1.34313e-05
1.29226e-05
1.91423e-05
9.45865e-06
2.38328e-05
6.81306e-06
2.74157e-05
4.74729e-06
2.98808e-05
3.05614e-06
3.12284e-05
1.57891e-06
3.14349e-05
1.82194e-07
3.04361e-05
-1.26498e-06
2.81194e-05
-2.91519e-06
2.43381e-05
-4.98079e-06
1.89731e-05
-7.77685e-06
1.21044e-05
-1.17509e-05
4.38895e-06
-1.73987e-05
-2.27978e-06
-2.48297e-05
-4.31066e-06
-3.18452e-05
-2.61116e-05
-1.841e-06
2.39113e-05
6.40716e-06
1.95122e-05
1.7224e-05
1.2062e-05
2.69439e-05
7.68569e-06
3.48194e-05
5.04715e-06
4.09187e-05
3.35932e-06
4.54849e-05
2.2469e-06
4.87551e-05
1.47705e-06
5.09085e-05
9.02763e-07
5.20545e-05
4.32866e-07
5.223e-05
6.69791e-09
5.13965e-05
-4.31447e-07
4.94207e-05
-9.39403e-07
4.60523e-05
-1.61244e-06
4.0895e-05
-2.61947e-06
3.34274e-05
-4.28331e-06
2.32426e-05
-7.2138e-06
1.09021e-05
-1.24893e-05
2.76139e-07
-2.12192e-05
-2.58355e-05
2.39113e-05
4.34234e-05
5.54854e-05
6.31711e-05
6.82183e-05
7.15776e-05
7.38245e-05
7.53015e-05
7.62043e-05
7.66372e-05
7.66439e-05
7.62124e-05
7.5273e-05
7.36606e-05
7.10411e-05
6.67578e-05
5.9544e-05
4.70547e-05
2.58355e-05
)
;

boundaryField
{
    movingWall
    {
        type            calculated;
        value           uniform 0;
    }
    fixedWalls
    {
        type            calculated;
        value           uniform 0;
    }
    frontAndBack
    {
        type            empty;
        value           nonuniform List<scalar> 0();
    }
}


// ************************************************************************* //
