/*--------------------------------*- C++ -*----------------------------------*\
  =========                 |
  \\      /  F ield         | OpenFOAM: The Open Source CFD Toolbox
   \\    /   O peration     | Website:  https://openfoam.org
    \\  /    A nd           | Version:  8
     \\/     M anipulation  |
\*---------------------------------------------------------------------------*/
FoamFile
{
    version     2.0;
    format      ascii;
    class       volVectorField;
    location    "0.4";
    object      U;
}
// * * * * * * * * * * * * * * * * * * * * * * * * * * * * * * * * * * * * * //

dimensions      [0 1 -1 0 0 0 0];

internalField   nonuniform List<vector> 
400
(
(0.000448353 -0.000443588 0)
(0.000224391 0.000211829 0)
(-0.0021651 0.00101858 0)
(-0.00630003 0.00158194 0)
(-0.0114723 0.00186271 0)
(-0.0169865 0.00189249 0)
(-0.0222285 0.00171553 0)
(-0.0266886 0.0013753 0)
(-0.029965 0.000911127 0)
(-0.0317638 0.000360932 0)
(-0.0319051 -0.000234269 0)
(-0.0303369 -0.000826579 0)
(-0.0271549 -0.00135949 0)
(-0.0226194 -0.001769 0)
(-0.0171656 -0.0019879 0)
(-0.0113945 -0.00195409 0)
(-0.00603559 -0.00162388 0)
(-0.00186988 -0.000991127 0)
(0.00040305 -0.000142708 0)
(0.000494569 0.000483075 0)
(-0.000159376 -0.000271345 0)
(-0.0029674 0.00300642 0)
(-0.0103437 0.00651818 0)
(-0.0211647 0.00901569 0)
(-0.0340001 0.0102566 0)
(-0.0474224 0.0102911 0)
(-0.0600788 0.00927268 0)
(-0.0707933 0.00739124 0)
(-0.0786205 0.0048476 0)
(-0.0828707 0.00185333 0)
(-0.0831354 -0.0013587 0)
(-0.0793188 -0.00452478 0)
(-0.0716731 -0.00734858 0)
(-0.0608243 -0.00951185 0)
(-0.0477756 -0.0107005 0)
(-0.0338672 -0.0106492 0)
(-0.0206633 -0.00920716 0)
(-0.00975677 -0.00642448 0)
(-0.00258197 -0.00272568 0)
(-4.63179e-05 0.000461356 0)
(-0.000982719 0.00204771 0)
(-0.00677756 0.0104265 0)
(-0.0191908 0.0184144 0)
(-0.036072 0.0240259 0)
(-0.055356 0.0267233 0)
(-0.0751377 0.0265415 0)
(-0.0935933 0.0237827 0)
(-0.109117 0.0188767 0)
(-0.12041 0.0123144 0)
(-0.126525 0.00463445 0)
(-0.126904 -0.00356607 0)
(-0.121422 -0.0116201 0)
(-0.110427 -0.0187946 0)
(-0.0947729 -0.0243213 0)
(-0.0758183 -0.0274635 0)
(-0.055371 -0.027625 0)
(-0.0355334 -0.0245003 0)
(-0.0184531 -0.0182594 0)
(-0.00624669 -0.00981999 0)
(-0.00081444 -0.00158228 0)
(-0.00171275 0.00641563 0)
(-0.0103623 0.0221632 0)
(-0.0276756 0.0358572 0)
(-0.0502933 0.0451538 0)
(-0.0754559 0.0493602 0)
(-0.100844 0.0485655 0)
(-0.124286 0.0432786 0)
(-0.143886 0.0342313 0)
(-0.158116 0.022278 0)
(-0.165861 0.00836756 0)
(-0.166455 -0.00644746 0)
(-0.159733 -0.0209979 0)
(-0.146072 -0.034008 0)
(-0.126443 -0.0441494 0)
(-0.102414 -0.0501531 0)
(-0.0761178 -0.0509901 0)
(-0.0500843 -0.0461155 0)
(-0.0269917 -0.0357477 0)
(-0.00975377 -0.0212033 0)
(-0.00149596 -0.00558485 0)
(-0.00235081 0.0126127 0)
(-0.0136756 0.0379306 0)
(-0.0357091 0.0584524 0)
(-0.0638363 0.0718204 0)
(-0.0945552 0.0774142 0)
(-0.125141 0.0755236 0)
(-0.153135 0.0669585 0)
(-0.176437 0.052819 0)
(-0.193372 0.0343725 0)
(-0.202713 0.0130195 0)
(-0.20371 -0.00969274 0)
(-0.196129 -0.0320497 0)
(-0.180315 -0.0521783 0)
(-0.157251 -0.0681154 0)
(-0.128612 -0.07796 0)
(-0.096763 -0.0801238 0)
(-0.0646301 -0.0736715 0)
(-0.0354721 -0.0587011 0)
(-0.0131339 -0.0367383 0)
(-0.00210568 -0.0113753 0)
(-0.00293954 0.0204939 0)
(-0.0168242 0.0575703 0)
(-0.0434385 0.0860676 0)
(-0.0769046 0.103873 0)
(-0.112951 0.110685 0)
(-0.148453 0.107182 0)
(-0.180712 0.0946042 0)
(-0.207487 0.0744985 0)
(-0.227023 0.0485865 0)
(-0.238031 0.0187358 0)
(-0.239686 -0.0130087 0)
(-0.231659 -0.0443825 0)
(-0.214188 -0.0728917 0)
(-0.188175 -0.0958782 0)
(-0.155289 -0.110696 0)
(-0.118047 -0.115027 0)
(-0.079748 -0.107323 0)
(-0.0442948 -0.0873167 0)
(-0.0166105 -0.0565211 0)
(-0.00271166 -0.018905 0)
(-0.00351892 0.029996 0)
(-0.0199296 0.080989 0)
(-0.0510482 0.118589 0)
(-0.089703 0.141153 0)
(-0.130836 0.14896 0)
(-0.170943 0.143301 0)
(-0.207142 0.126002 0)
(-0.237131 0.0991462 0)
(-0.259152 0.0649412 0)
(-0.271908 0.0257111 0)
(-0.274518 -0.0160365 0)
(-0.266533 -0.057524 0)
(-0.248011 -0.0956497 0)
(-0.219656 -0.127021 0)
(-0.182998 -0.148129 0)
(-0.140587 -0.15571 0)
(-0.0960351 -0.147304 0)
(-0.0539305 -0.121944 0)
(-0.0204464 -0.0808477 0)
(-0.00338685 -0.028278 0)
(-0.00412338 0.0411266 0)
(-0.0231037 0.108168 0)
(-0.0587001 0.155917 0)
(-0.102359 0.183444 0)
(-0.148215 0.191915 0)
(-0.192433 0.1835 0)
(-0.232041 0.160796 0)
(-0.264788 0.12652 0)
(-0.289019 0.0833838 0)
(-0.303511 0.0341284 0)
(-0.30737 -0.0183544 0)
(-0.300014 -0.0708625 0)
(-0.281246 -0.119752 0)
(-0.251436 -0.160895 0)
(-0.211794 -0.189811 0)
(-0.164709 -0.202045 0)
(-0.113968 -0.193841 0)
(-0.0648282 -0.163064 0)
(-0.0249085 -0.110232 0)
(-0.004205 -0.0397529 0)
(-0.0047878 0.0539568 0)
(-0.0264574 0.139157 0)
(-0.0665313 0.197939 0)
(-0.114903 0.230406 0)
(-0.16487 0.239007 0)
(-0.212358 0.227122 0)
(-0.254453 0.198342 0)
(-0.289122 0.156118 0)
(-0.314969 0.103671 0)
(-0.33097 0.0440799 0)
(-0.336295 -0.0195081 0)
(-0.330242 -0.083619 0)
(-0.312295 -0.144203 0)
(-0.282337 -0.196469 0)
(-0.241016 -0.234901 0)
(-0.19027 -0.253594 0)
(-0.133786 -0.247019 0)
(-0.0773648 -0.211227 0)
(-0.0302644 -0.145391 0)
(-0.00524631 -0.0537409 0)
(-0.00556215 0.0686275 0)
(-0.0301376 0.17407 0)
(-0.074692 0.244478 0)
(-0.127277 0.281465 0)
(-0.180331 0.289317 0)
(-0.229699 0.273052 0)
(-0.272757 0.237515 0)
(-0.30793 0.187001 0)
(-0.334299 0.125214 0)
(-0.351216 0.0554528 0)
(-0.358037 -0.0190695 0)
(-0.353996 -0.0948365 0)
(-0.338225 -0.167626 0)
(-0.309962 -0.232158 0)
(-0.269005 -0.281918 0)
(-0.216425 -0.309333 0)
(-0.155353 -0.306541 0)
(-0.0918056 -0.266892 0)
(-0.0367986 -0.187196 0)
(-0.00661154 -0.0708137 0)
(-0.00653807 0.0853905 0)
(-0.0343937 0.2131 0)
(-0.0834085 0.29522 0)
(-0.139355 0.335657 0)
(-0.193828 0.341334 0)
(-0.24288 0.319477 0)
(-0.284528 0.276486 0)
(-0.317987 0.217587 0)
(-0.343094 0.146904 0)
(-0.359803 0.0677868 0)
(-0.367827 -0.0167356 0)
(-0.366445 -0.103416 0)
(-0.354455 -0.188205 0)
(-0.330336 -0.26566 0)
(-0.292729 -0.328466 0)
(-0.241311 -0.367292 0)
(-0.177955 -0.371375 0)
(-0.108243 -0.330192 0)
(-0.0448427 -0.2366 0)
(-0.00844707 -0.091734 0)
(-0.00789628 0.104707 0)
(-0.039677 0.256563 0)
(-0.0930481 0.349608 0)
(-0.150898 0.391396 0)
(-0.204145 0.392683 0)
(-0.249553 0.363623 0)
(-0.286302 0.31248 0)
(-0.314821 0.245445 0)
(-0.336033 0.166935 0)
(-0.350736 0.0801188 0)
(-0.359203 -0.0124619 0)
(-0.360918 -0.108208 0)
(-0.354449 -0.2037 0)
(-0.3375 -0.293835 0)
(-0.307307 -0.370946 0)
(-0.261573 -0.424118 0)
(-0.199958 -0.439244 0)
(-0.126468 -0.400536 0)
(-0.0548145 -0.294511 0)
(-0.0109887 -0.117526 0)
(-0.00999062 0.127444 0)
(-0.0467807 0.30495 0)
(-0.104124 0.406622 0)
(-0.161348 0.446101 0)
(-0.209231 0.439729 0)
(-0.246137 0.401426 0)
(-0.273137 0.341545 0)
(-0.29237 0.267141 0)
(-0.306149 0.182681 0)
(-0.316328 0.090858 0)
(-0.323913 -0.00660945 0)
(-0.328787 -0.108176 0)
(-0.329495 -0.211573 0)
(-0.323118 -0.312712 0)
(-0.305439 -0.404335 0)
(-0.271706 -0.474565 0)
(-0.218229 -0.505927 0)
(-0.145677 -0.475974 0)
(-0.0672459 -0.36155 0)
(-0.0146349 -0.149618 0)
(-0.0134881 0.155222 0)
(-0.0569866 0.358898 0)
(-0.117064 0.464286 0)
(-0.169149 0.495556 0)
(-0.205279 0.477047 0)
(-0.226878 0.427213 0)
(-0.237827 0.358429 0)
(-0.242426 0.278236 0)
(-0.244541 0.190732 0)
(-0.247127 0.0977753 0)
(-0.251984 -5.44346e-05 0)
(-0.25956 -0.102612 0)
(-0.268681 -0.209273 0)
(-0.276202 -0.317716 0)
(-0.276779 -0.422174 0)
(-0.263106 -0.511059 0)
(-0.227126 -0.56436 0)
(-0.163816 -0.552152 0)
(-0.0827042 -0.437515 0)
(-0.0200474 -0.190052 0)
(-0.0195372 0.190941 0)
(-0.0720111 0.418794 0)
(-0.131232 0.518604 0)
(-0.170016 0.532885 0)
(-0.184761 0.496808 0)
(-0.182087 0.433546 0)
(-0.169572 0.35676 0)
(-0.153809 0.273634 0)
(-0.14001 0.187253 0)
(-0.131946 0.0982433 0)
(-0.132031 0.00583331 0)
(-0.141316 -0.0913927 0)
(-0.159245 -0.19474 0)
(-0.183122 -0.304301 0)
(-0.207357 -0.417045 0)
(-0.222799 -0.523629 0)
(-0.216753 -0.603702 0)
(-0.176056 -0.62072 0)
(-0.101241 -0.520188 0)
(-0.0281701 -0.24168 0)
(-0.0296684 0.239576 0)
(-0.0928755 0.483378 0)
(-0.141853 0.561339 0)
(-0.152875 0.547021 0)
(-0.132613 0.488314 0)
(-0.095197 0.411597 0)
(-0.0520483 0.329897 0)
(-0.0113613 0.248582 0)
(0.0212007 0.16889 0)
(0.041836 0.089891 0)
(0.0480504 0.00947157 0)
(0.0383822 -0.075169 0)
(0.0125091 -0.167127 0)
(-0.0281605 -0.269113 0)
(-0.0792981 -0.381861 0)
(-0.131857 -0.50066 0)
(-0.17001 -0.608736 0)
(-0.171402 -0.66708 0)
(-0.120275 -0.603009 0)
(-0.039655 -0.308417 0)
(-0.0442027 0.309924 0)
(-0.115098 0.545707 0)
(-0.131621 0.575096 0)
(-0.0913059 0.520157 0)
(-0.0197257 0.437859 0)
(0.0613205 0.352426 0)
(0.13866 0.272725 0)
(0.204697 0.200448 0)
(0.255117 0.134274 0)
(0.287394 0.0717026 0)
(0.299809 0.00966947 0)
(0.290944 -0.0553755 0)
(0.259584 -0.127562 0)
(0.205118 -0.211593 0)
(0.128787 -0.312065 0)
(0.0362667 -0.430816 0)
(-0.0579989 -0.559885 0)
(-0.125903 -0.667168 0)
(-0.128712 -0.670538 0)
(-0.0521366 -0.396009 0)
(-0.0539759 0.411807 0)
(-0.11283 0.581191 0)
(-0.0507874 0.525736 0)
(0.0721198 0.426936 0)
(0.206106 0.331816 0)
(0.329755 0.251199 0)
(0.434611 0.185542 0)
(0.517614 0.131777 0)
(0.578152 0.0862154 0)
(0.616348 0.045465 0)
(0.632092 0.00639196 0)
(0.62457 -0.0342334 0)
(0.59201 -0.0802256 0)
(0.531677 -0.136604 0)
(0.440488 -0.210113 0)
(0.317125 -0.30871 0)
(0.166549 -0.437378 0)
(0.0098061 -0.58513 0)
(-0.0927034 -0.686498 0)
(-0.0500474 -0.503516 0)
(0.0076722 0.494971 0)
(0.0216501 0.518122 0)
(0.22709 0.373802 0)
(0.446961 0.25887 0)
(0.625557 0.179297 0)
(0.764437 0.124216 0)
(0.870138 0.0856494 0)
(0.947749 0.0576755 0)
(1.00143 0.036115 0)
(1.03412 0.0181144 0)
(1.04732 0.00156927 0)
(1.04108 -0.0153955 0)
(1.01373 -0.0350015 0)
(0.961536 -0.0604959 0)
(0.878134 -0.0973064 0)
(0.754332 -0.154672 0)
(0.577518 -0.246984 0)
(0.337492 -0.390913 0)
(0.0906679 -0.571398 0)
(0.0412016 -0.553291 0)
(0.533055 0.260446 0)
(0.699832 0.228509 0)
(0.983898 0.138576 0)
(1.19447 0.0814563 0)
(1.32208 0.0488069 0)
(1.4033 0.0297339 0)
(1.45768 0.0183211 0)
(1.49402 0.0111821 0)
(1.51729 0.00635025 0)
(1.53036 0.00270243 0)
(1.53467 -0.000445363 0)
(1.53055 -0.00359621 0)
(1.51722 -0.00734053 0)
(1.49246 -0.0125973 0)
(1.4516 -0.0211676 0)
(1.38549 -0.0368206 0)
(1.27328 -0.0673594 0)
(1.0689 -0.127522 0)
(0.762694 -0.229488 0)
(0.562833 -0.271201 0)
)
;

boundaryField
{
    movingWall
    {
        type            fixedValue;
        value           uniform (1.8 0 0);
    }
    fixedWalls
    {
        type            noSlip;
    }
    frontAndBack
    {
        type            empty;
    }
}


// ************************************************************************* //
