/*--------------------------------*- C++ -*----------------------------------*\
  =========                 |
  \\      /  F ield         | OpenFOAM: The Open Source CFD Toolbox
   \\    /   O peration     | Website:  https://openfoam.org
    \\  /    A nd           | Version:  8
     \\/     M anipulation  |
\*---------------------------------------------------------------------------*/
FoamFile
{
    version     2.0;
    format      ascii;
    class       surfaceScalarField;
    location    "0.4";
    object      phi;
}
// * * * * * * * * * * * * * * * * * * * * * * * * * * * * * * * * * * * * * //

dimensions      [0 3 -1 0 0 0 0];

internalField   nonuniform List<scalar> 
760
(
2.22589e-08
-2.22386e-08
-3.69073e-08
5.91653e-08
-1.84327e-07
1.47419e-07
-3.93351e-07
2.09025e-07
-6.32697e-07
2.39347e-07
-8.73151e-07
2.40454e-07
-1.08965e-06
2.165e-07
-1.26194e-06
1.72284e-07
-1.37462e-06
1.12684e-07
-1.41733e-06
4.27066e-08
-1.3851e-06
-3.22311e-08
-1.27905e-06
-1.06042e-07
-1.10717e-06
-1.71888e-07
-8.84792e-07
-2.22375e-07
-6.34712e-07
-2.5008e-07
-3.86203e-07
-2.48509e-07
-1.72639e-07
-2.13563e-07
-2.7179e-08
-1.4546e-07
2.59414e-08
-5.31213e-08
2.59404e-08
-5.60444e-08
3.38065e-08
-2.91466e-07
2.94586e-07
-6.97362e-07
5.53313e-07
-1.2243e-06
7.35965e-07
-1.80982e-06
8.24862e-07
-2.3911e-06
8.21736e-07
-2.9115e-06
7.369e-07
-3.32376e-06
5.84548e-07
-3.59164e-06
3.80563e-07
-3.69101e-06
1.42073e-07
-3.61105e-06
-1.12196e-07
-3.35558e-06
-3.61513e-07
-2.94429e-06
-5.83178e-07
-2.41329e-06
-7.53375e-07
-1.81428e-06
-8.4909e-07
-1.21145e-06
-8.51335e-07
-6.75189e-07
-7.49828e-07
-2.71716e-07
-5.48932e-07
-4.73021e-08
-2.77534e-07
-2.13625e-08
-1.49542e-07
1.83349e-07
-5.75176e-07
7.2022e-07
-1.22711e-06
1.20524e-06
-2.03076e-06
1.53961e-06
-2.90073e-06
1.69484e-06
-3.75218e-06
1.67319e-06
-4.50815e-06
1.49287e-06
-5.10396e-06
1.18036e-06
-5.48982e-06
7.66419e-07
-5.63263e-06
2.84885e-07
-5.51773e-06
-2.27101e-07
-5.15055e-06
-7.28686e-07
-4.55812e-06
-1.17561e-06
-3.78952e-06
-1.52197e-06
-2.91468e-06
-1.72394e-06
-2.02014e-06
-1.74587e-06
-1.20114e-06
-1.56883e-06
-5.49364e-07
-1.20071e-06
-1.36978e-07
-6.8992e-07
-1.5834e-07
-2.34842e-07
4.18191e-07
-8.45121e-07
1.3305e-06
-1.73368e-06
2.0938e-06
-2.79472e-06
2.60065e-06
-3.92007e-06
2.82018e-06
-5.00697e-06
2.76009e-06
-5.96406e-06
2.44996e-06
-6.71513e-06
1.93143e-06
-7.20162e-06
1.25291e-06
-7.38446e-06
4.67719e-07
-7.24583e-06
-3.65726e-07
-6.79116e-06
-1.18336e-06
-6.05087e-06
-1.91591e-06
-5.0814e-06
-2.49143e-06
-3.9645e-06
-2.84084e-06
-2.80341e-06
-2.90697e-06
-1.71512e-06
-2.65712e-06
-8.18504e-07
-2.09733e-06
-2.19688e-07
-1.28874e-06
-3.78028e-07
-3.12369e-07
7.30559e-07
-1.09909e-06
2.11722e-06
-2.21596e-06
3.21067e-06
-3.52286e-06
3.90756e-06
-4.88775e-06
4.18507e-06
-6.19153e-06
4.06387e-06
-7.33161e-06
3.59003e-06
-8.22399e-06
2.82381e-06
-8.80451e-06
1.83344e-06
-9.02993e-06
6.93138e-07
-8.87934e-06
-5.16319e-07
-8.35621e-06
-1.70649e-06
-7.49083e-06
-2.78129e-06
-6.34252e-06
-3.63974e-06
-5.0005e-06
-4.18286e-06
-3.58194e-06
-4.32553e-06
-2.22587e-06
-4.01319e-06
-1.08221e-06
-3.24099e-06
-2.9733e-07
-2.07362e-06
-6.75358e-07
-3.85697e-07
1.11626e-06
-1.34336e-06
3.07489e-06
-2.68255e-06
4.54986e-06
-4.22728e-06
5.45229e-06
-5.82091e-06
5.7787e-06
-7.32905e-06
5.572e-06
-8.64034e-06
4.90133e-06
-9.66601e-06
3.84947e-06
-1.03389e-05
2.50631e-06
-1.0613e-05
9.67214e-07
-1.0464e-05
-6.65291e-07
-9.89145e-06
-2.27902e-06
-8.9219e-06
-3.75083e-06
-7.61307e-06
-4.94857e-06
-6.05751e-06
-5.73841e-06
-4.38404e-06
-5.999e-06
-2.75446e-06
-5.64277e-06
-1.35412e-06
-4.64133e-06
-3.7596e-07
-3.05178e-06
-1.05132e-06
-4.58358e-07
1.57461e-06
-1.58536e-06
4.20189e-06
-3.14299e-06
6.10749e-06
-4.9178e-06
7.22709e-06
-6.72842e-06
7.58932e-06
-8.42687e-06
7.27045e-06
-9.89606e-06
6.37052e-06
-1.10459e-05
4.9993e-06
-1.18092e-05
3.26962e-06
-1.2139e-05
1.29701e-06
-1.20077e-05
-7.96626e-07
-1.14086e-05
-2.87808e-06
-1.03606e-05
-4.79882e-06
-8.9145e-06
-6.3947e-06
-7.1607e-06
-7.49221e-06
-5.23578e-06
-7.92392e-06
-3.32395e-06
-7.5546e-06
-1.65017e-06
-6.31511e-06
-4.62145e-07
-4.2398e-06
-1.51346e-06
-5.3346e-07
2.10807e-06
-1.83182e-06
5.50025e-06
-3.60462e-06
7.88029e-06
-5.59834e-06
9.22082e-06
-7.60743e-06
9.59842e-06
-9.4734e-06
9.13641e-06
-1.10781e-05
7.97519e-06
-1.2335e-05
6.25619e-06
-1.31812e-05
4.11589e-06
-1.35717e-05
1.68751e-06
-1.34762e-05
-8.922e-07
-1.288e-05
-3.47424e-06
-1.17897e-05
-5.88907e-06
-1.02424e-05
-7.94207e-06
-8.3182e-06
-9.41637e-06
-6.15443e-06
-1.00877e-05
-3.95438e-06
-9.75465e-06
-1.98592e-06
-8.28356e-06
-5.62382e-07
-5.66334e-06
-2.07585e-06
-6.14027e-07
2.7221e-06
-2.08884e-06
6.97506e-06
-4.07187e-06
9.86331e-06
-6.26532e-06
1.14143e-05
-8.44092e-06
1.1774e-05
-1.0435e-05
1.11305e-05
-1.21356e-05
9.67571e-06
-1.3467e-05
7.58763e-06
-1.43771e-05
5.02603e-06
-1.48272e-05
2.13753e-06
-1.4786e-05
-9.33311e-07
-1.42302e-05
-4.03008e-06
-1.3149e-05
-6.97029e-06
-1.1557e-05
-9.53408e-06
-9.51281e-06
-1.14605e-05
-7.14224e-06
-1.24583e-05
-4.65929e-06
-1.22376e-05
-2.37546e-06
-1.05674e-05
-6.83225e-07
-7.35558e-06
-2.75907e-06
-7.04047e-07
3.42615e-06
-2.36357e-06
8.63458e-06
-4.54727e-06
1.2047e-05
-6.90703e-06
1.3774e-05
-9.19532e-06
1.40623e-05
-1.12523e-05
1.31875e-05
-1.29827e-05
1.14061e-05
-1.43324e-05
8.93735e-06
-1.52687e-05
5.96231e-06
-1.57656e-05
2.63445e-06
-1.57952e-05
-9.03692e-07
-1.5325e-05
-4.50027e-06
-1.43229e-05
-7.97245e-06
-1.27711e-05
-1.10859e-05
-1.06912e-05
-1.35404e-05
-8.17882e-06
-1.49706e-05
-5.44224e-06
-1.49742e-05
-2.83113e-06
-1.31785e-05
-8.31997e-07
-9.35471e-06
-3.59107e-06
-8.1036e-07
4.23651e-06
-2.66704e-06
1.04913e-05
-5.03291e-06
1.44129e-05
-7.50237e-06
1.62435e-05
-9.81648e-06
1.63764e-05
-1.18337e-05
1.52047e-05
-1.34913e-05
1.30637e-05
-1.47704e-05
1.02165e-05
-1.5669e-05
6.86093e-06
-1.61827e-05
3.14811e-06
-1.62923e-05
-7.94103e-07
-1.59587e-05
-4.83382e-06
-1.51257e-05
-8.80542e-06
-1.37338e-05
-1.24779e-05
-1.17489e-05
-1.55253e-05
-9.21015e-06
-1.75094e-05
-6.29145e-06
-1.78929e-05
-3.3633e-06
-1.61067e-05
-1.0181e-06
-1.16999e-05
-4.60917e-06
-9.45789e-07
5.1823e-06
-3.01785e-06
1.25633e-05
-5.53063e-06
1.69257e-05
-8.01604e-06
1.87289e-05
-1.02207e-05
1.85811e-05
-1.20448e-05
1.70289e-05
-1.34798e-05
1.44986e-05
-1.45589e-05
1.12956e-05
-1.53237e-05
7.62568e-06
-1.58005e-05
3.62495e-06
-1.59866e-05
-6.08045e-07
-1.58413e-05
-4.97906e-06
-1.52855e-05
-9.36129e-06
-1.42109e-05
-1.35524e-05
-1.25099e-05
-1.72263e-05
-1.01313e-05
-1.9888e-05
-7.17017e-06
-2.0854e-05
-3.97901e-06
-1.92978e-05
-1.25519e-06
-1.44237e-05
-5.86436e-06
-1.13422e-06
6.31652e-06
-3.44539e-06
1.48745e-05
-6.03669e-06
1.9517e-05
-8.38409e-06
2.10763e-05
-1.02749e-05
2.04719e-05
-1.16876e-05
1.84415e-05
-1.26951e-05
1.55062e-05
-1.34012e-05
1.20017e-05
-1.39017e-05
8.12615e-06
-1.4262e-05
3.98521e-06
-1.45028e-05
-3.6721e-07
-1.45902e-05
-4.89166e-06
-1.44287e-05
-9.52278e-06
-1.38631e-05
-1.4118e-05
-1.26988e-05
-1.83906e-05
-1.07591e-05
-2.18277e-05
-7.99801e-06
-2.36151e-05
-4.67716e-06
-2.26187e-05
-1.56448e-06
-1.75364e-05
-7.42885e-06
-1.41824e-06
7.73476e-06
-3.98801e-06
1.74443e-05
-6.52044e-06
2.20494e-05
-8.47736e-06
2.30332e-05
-9.75464e-06
2.17492e-05
-1.04617e-05
1.91486e-05
-1.07836e-05
1.58281e-05
-1.09074e-05
1.21256e-05
-1.09876e-05
8.20629e-06
-1.113e-05
4.12761e-06
-1.13834e-05
-1.13828e-07
-1.17298e-05
-4.54522e-06
-1.20722e-05
-9.18035e-06
-1.22229e-05
-1.39674e-05
-1.19042e-05
-1.87093e-05
-1.07879e-05
-2.2944e-05
-8.61413e-06
-2.57889e-05
-5.43334e-06
-2.57995e-05
-1.9785e-06
-2.09912e-05
-9.40735e-06
-1.86638e-06
9.60114e-06
-4.66974e-06
2.02476e-05
-6.86181e-06
2.42414e-05
-8.01814e-06
2.41896e-05
-8.26183e-06
2.19928e-05
-7.89784e-06
1.87846e-05
-7.24501e-06
1.51752e-05
-6.57095e-06
1.14516e-05
-6.07626e-06
7.71161e-06
-5.89644e-06
3.94779e-06
-6.10474e-06
9.44722e-08
-6.70739e-06
-3.94257e-06
-7.62768e-06
-8.26006e-06
-8.67871e-06
-1.29163e-05
-9.53342e-06
-1.78546e-05
-9.71983e-06
-2.27576e-05
-8.7031e-06
-2.68056e-05
-6.15495e-06
-2.83476e-05
-2.5379e-06
-2.46083e-05
-1.19452e-05
-2.55887e-06
1.216e-05
-5.40347e-06
2.30922e-05
-6.68904e-06
2.5527e-05
-6.40654e-06
2.39071e-05
-5.07893e-06
2.06652e-05
-3.2557e-06
1.69614e-05
-1.37467e-06
1.32942e-05
2.53673e-07
9.82322e-06
1.42117e-06
6.54411e-06
1.99239e-06
3.37657e-06
1.88524e-06
2.01619e-07
1.06697e-06
-3.1243e-06
-4.31231e-07
-6.76186e-06
-2.47542e-06
-1.08722e-05
-4.76468e-06
-1.55653e-05
-6.75691e-06
-2.07653e-05
-7.64808e-06
-2.59144e-05
-6.55597e-06
-2.94397e-05
-3.25094e-06
-2.79133e-05
-1.51962e-05
-3.48357e-06
1.56436e-05
-5.6833e-06
2.5292e-05
-4.99893e-06
2.48426e-05
-2.39475e-06
2.13029e-05
1.05422e-06
1.72163e-05
4.60065e-06
1.34149e-05
7.78597e-06
1.01089e-05
1.03489e-05
7.26029e-06
1.21435e-05
4.74951e-06
1.30819e-05
2.43821e-06
1.31006e-05
1.82849e-07
1.21481e-05
-2.17179e-06
1.01912e-05
-4.8049e-06
7.25196e-06
-7.93295e-06
3.49052e-06
-1.18039e-05
-6.51001e-07
-1.66238e-05
-4.26141e-06
-2.2304e-05
-5.85913e-06
-2.7842e-05
-3.94349e-06
-2.9829e-05
-1.91397e-05
-4.15632e-06
1.97999e-05
-3.74316e-06
2.48788e-05
6.42009e-07
2.04575e-05
6.44163e-06
1.55033e-05
1.2204e-05
1.14539e-05
1.72816e-05
8.33732e-06
2.14228e-05
5.96767e-06
2.45577e-05
4.12534e-06
2.66846e-05
2.62268e-06
2.78095e-05
1.31326e-06
2.79164e-05
7.60088e-08
2.69521e-05
-1.20753e-06
2.48214e-05
-2.67419e-06
2.14011e-05
-4.51263e-06
1.65965e-05
-6.99934e-06
1.04939e-05
-1.05212e-05
3.68774e-06
-1.54979e-05
-2.14725e-06
-2.2007e-05
-3.85873e-06
-2.81175e-05
-2.29984e-05
-1.54361e-06
2.13435e-05
5.8997e-06
1.74355e-05
1.55982e-05
1.0759e-05
2.42791e-05
6.82235e-06
3.12786e-05
4.45443e-06
3.66679e-05
2.94802e-06
4.06752e-05
1.96036e-06
4.35207e-05
1.2798e-06
4.53697e-05
7.73727e-07
4.63227e-05
3.60277e-07
4.64142e-05
-1.55215e-08
4.56094e-05
-4.02745e-07
4.37899e-05
-8.54704e-07
4.07338e-05
-1.45651e-06
3.60933e-05
-2.35883e-06
2.94179e-05
-3.84576e-06
2.03668e-05
-6.44683e-06
9.4587e-06
-1.10989e-05
1.31056e-07
-1.87898e-05
-2.28673e-05
2.13435e-05
3.8779e-05
4.9538e-05
5.63604e-05
6.08148e-05
6.37628e-05
6.57232e-05
6.7003e-05
6.77767e-05
6.8137e-05
6.81215e-05
6.77187e-05
6.6864e-05
6.54075e-05
6.30487e-05
5.92029e-05
5.27561e-05
4.16572e-05
2.28673e-05
)
;

boundaryField
{
    movingWall
    {
        type            calculated;
        value           uniform 0;
    }
    fixedWalls
    {
        type            calculated;
        value           uniform 0;
    }
    frontAndBack
    {
        type            empty;
        value           nonuniform List<scalar> 0();
    }
}


// ************************************************************************* //
