/*--------------------------------*- C++ -*----------------------------------*\
  =========                 |
  \\      /  F ield         | OpenFOAM: The Open Source CFD Toolbox
   \\    /   O peration     | Website:  https://openfoam.org
    \\  /    A nd           | Version:  8
     \\/     M anipulation  |
\*---------------------------------------------------------------------------*/
FoamFile
{
    version     2.0;
    format      ascii;
    class       volVectorField;
    location    "0.2";
    object      U;
}
// * * * * * * * * * * * * * * * * * * * * * * * * * * * * * * * * * * * * * //

dimensions      [0 1 -1 0 0 0 0];

internalField   nonuniform List<vector> 
400
(
(0.000729264 -0.000726305 0)
(0.000310153 0.000374028 0)
(-0.00370001 0.00169786 0)
(-0.0105534 0.00260732 0)
(-0.0190739 0.00305781 0)
(-0.0281468 0.00311231 0)
(-0.0368029 0.00284327 0)
(-0.0442318 0.002313 0)
(-0.0497727 0.00157287 0)
(-0.0529109 0.00067303 0)
(-0.0532969 -0.000325546 0)
(-0.0507874 -0.00134198 0)
(-0.0454985 -0.00227224 0)
(-0.0378535 -0.00299362 0)
(-0.0286066 -0.00337735 0)
(-0.0188227 -0.00330955 0)
(-0.00979142 -0.00271994 0)
(-0.00286307 -0.00161717 0)
(0.000813637 -0.000179163 0)
(0.000858979 0.000835574 0)
(-0.000309065 -0.000385494 0)
(-0.00508753 0.00509933 0)
(-0.0174367 0.0108628 0)
(-0.0354019 0.014906 0)
(-0.0566146 0.0169048 0)
(-0.0787794 0.0169831 0)
(-0.0997401 0.0153907 0)
(-0.117605 0.0124027 0)
(-0.130812 0.0082955 0)
(-0.138163 0.00336902 0)
(-0.138884 -0.00201759 0)
(-0.132711 -0.00741882 0)
(-0.119987 -0.0122994 0)
(-0.101735 -0.0160633 0)
(-0.0796797 -0.0181199 0)
(-0.0561701 -0.0179858 0)
(-0.0339488 -0.0154206 0)
(-0.0157676 -0.0105824 0)
(-0.00400007 -0.00430422 0)
(8.32763e-06 0.00091685 0)
(-0.00170745 0.00358772 0)
(-0.011511 0.0175826 0)
(-0.0322705 0.0306873 0)
(-0.0603037 0.0397793 0)
(-0.0922043 0.0441296 0)
(-0.124915 0.0438775 0)
(-0.155524 0.0395107 0)
(-0.181439 0.0316534 0)
(-0.200507 0.0209982 0)
(-0.211083 0.00832994 0)
(-0.212118 -0.00541737 0)
(-0.203264 -0.0191181 0)
(-0.184997 -0.031461 0)
(-0.158702 -0.0410252 0)
(-0.126702 -0.0464375 0)
(-0.0921485 -0.0466125 0)
(-0.0587276 -0.0410586 0)
(-0.0301682 -0.0302106 0)
(-0.0100121 -0.0158597 0)
(-0.00123485 -0.00228018 0)
(-0.00295083 0.0110245 0)
(-0.0175428 0.0372908 0)
(-0.0464404 0.0597325 0)
(-0.0839473 0.0747863 0)
(-0.125541 0.0815711 0)
(-0.167523 0.0803585 0)
(-0.206437 0.0719582 0)
(-0.239223 0.0574312 0)
(-0.263344 0.0379912 0)
(-0.276853 0.0150323 0)
(-0.278483 -0.00979303 0)
(-0.267775 -0.0345167 0)
(-0.245207 -0.0568695 0)
(-0.21232 -0.0744068 0)
(-0.171772 -0.0847664 0)
(-0.127272 -0.0860643 0)
(-0.0832749 -0.0773952 0)
(-0.0444768 -0.0593515 0)
(-0.0158222 -0.0345569 0)
(-0.00234196 -0.00868789 0)
(-0.00403248 0.0215434 0)
(-0.0230634 0.0636932 0)
(-0.0596992 0.0972653 0)
(-0.106189 0.118888 0)
(-0.156848 0.127925 0)
(-0.207371 0.125016 0)
(-0.253876 0.111432 0)
(-0.292983 0.0887562 0)
(-0.321901 0.0587842 0)
(-0.338465 0.0235699 0)
(-0.34121 -0.0144656 0)
(-0.329494 -0.0524481 0)
(-0.303658 -0.0870576 0)
(-0.265197 -0.114686 0)
(-0.216899 -0.131782 0)
(-0.162869 -0.135407 0)
(-0.108295 -0.123946 0)
(-0.0589671 -0.0978468 0)
(-0.0215211 -0.0602797 0)
(-0.00334276 -0.0180594 0)
(-0.00500978 0.0348603 0)
(-0.0281909 0.0964174 0)
(-0.0721672 0.142926 0)
(-0.127183 0.171699 0)
(-0.186392 0.182768 0)
(-0.244922 0.177435 0)
(-0.298553 0.157616 0)
(-0.343698 0.125515 0)
(-0.377418 0.0835451 0)
(-0.397394 0.0344181 0)
(-0.401959 -0.0186947 0)
(-0.39021 -0.0720209 0)
(-0.362195 -0.121153 0)
(-0.319155 -0.161201 0)
(-0.263786 -0.187193 0)
(-0.20043 -0.194777 0)
(-0.134975 -0.181183 0)
(-0.0744598 -0.146256 0)
(-0.0275496 -0.0933621 0)
(-0.0043646 -0.0303766 0)
(-0.00593291 0.0507905 0)
(-0.0330599 0.135134 0)
(-0.0840129 0.196324 0)
(-0.147075 0.23278 0)
(-0.214263 0.245632 0)
(-0.280203 0.237187 0)
(-0.34044 0.210217 0)
(-0.391307 0.167652 0)
(-0.429834 0.112537 0)
(-0.453625 0.048186 0)
(-0.460824 -0.0215666 0)
(-0.4502 -0.0921367 0)
(-0.421346 -0.158063 0)
(-0.375011 -0.213093 0)
(-0.313522 -0.250582 0)
(-0.241207 -0.264316 0)
(-0.164539 -0.249751 0)
(-0.0919154 -0.205472 0)
(-0.0344328 -0.134556 0)
(-0.00554871 -0.0459177 0)
(-0.00684106 0.0692285 0)
(-0.0377845 0.179571 0)
(-0.0953683 0.257024 0)
(-0.165892 0.301546 0)
(-0.240269 0.315843 0)
(-0.312716 0.303604 0)
(-0.378701 0.26871 0)
(-0.434644 0.214923 0)
(-0.477706 0.145906 0)
(-0.505542 0.0654758 0)
(-0.516169 -0.0220376 0)
(-0.507994 -0.111417 0)
(-0.480015 -0.19628 0)
(-0.432218 -0.269014 0)
(-0.366193 -0.321081 0)
(-0.285856 -0.343883 0)
(-0.197966 -0.330289 0)
(-0.112256 -0.276675 0)
(-0.0427142 -0.185064 0)
(-0.00704296 -0.0652694 0)
(-0.00777309 0.0901329 0)
(-0.0424804 0.229505 0)
(-0.106343 0.324525 0)
(-0.183546 0.377193 0)
(-0.263917 0.392363 0)
(-0.341415 0.375571 0)
(-0.411646 0.33209 0)
(-0.471367 0.266631 0)
(-0.518107 0.183443 0)
(-0.54977 0.0866874 0)
(-0.564388 -0.0190501 0)
(-0.560051 -0.128212 0)
(-0.535066 -0.233766 0)
(-0.488389 -0.326887 0)
(-0.420407 -0.397029 0)
(-0.334026 -0.432685 0)
(-0.235708 -0.423134 0)
(-0.136245 -0.361179 0)
(-0.052943 -0.246509 0)
(-0.00901214 -0.0893301 0)
(-0.00879311 0.11354 0)
(-0.0473358 0.284775 0)
(-0.117118 0.398198 0)
(-0.199908 0.458538 0)
(-0.284459 0.473561 0)
(-0.364701 0.451227 0)
(-0.436702 0.398543 0)
(-0.497896 0.321292 0)
(-0.546513 0.224255 0)
(-0.581002 0.111741 0)
(-0.599652 -0.0117334 0)
(-0.600393 -0.140682 0)
(-0.580848 -0.267871 0)
(-0.538723 -0.383636 0)
(-0.472692 -0.475531 0)
(-0.383839 -0.528739 0)
(-0.277356 -0.527808 0)
(-0.16436 -0.460088 0)
(-0.065689 -0.320819 0)
(-0.0116628 -0.119326 0)
(-0.0100361 0.139641 0)
(-0.0527353 0.345337 0)
(-0.128095 0.47723 0)
(-0.214922 0.543838 0)
(-0.300932 0.556926 0)
(-0.380408 0.527628 0)
(-0.450347 0.465081 0)
(-0.50933 0.376263 0)
(-0.556707 0.266409 0)
(-0.591867 0.139732 0)
(-0.613705 0.000296461 0)
(-0.620284 -0.147007 0)
(-0.608713 -0.295384 0)
(-0.575377 -0.435001 0)
(-0.516772 -0.551998 0)
(-0.431195 -0.628183 0)
(-0.32114 -0.642274 0)
(-0.196594 -0.573749 0)
(-0.0815676 -0.410034 0)
(-0.0152863 -0.156861 0)
(-0.0117884 0.168955 0)
(-0.0594485 0.411403 0)
(-0.140078 0.560549 0)
(-0.228672 0.630526 0)
(-0.312091 0.638705 0)
(-0.385636 0.600352 0)
(-0.447926 0.527158 0)
(-0.499278 0.427373 0)
(-0.540668 0.306557 0)
(-0.572865 0.168554 0)
(-0.595799 0.0165604 0)
(-0.608092 -0.145725 0)
(-0.606712 -0.312755 0)
(-0.586913 -0.475525 0)
(-0.542785 -0.619776 0)
(-0.468888 -0.7245 0)
(-0.363184 -0.761924 0)
(-0.232095 -0.700876 0)
(-0.101255 -0.515964 0)
(-0.0203293 -0.204021 0)
(-0.0146301 0.20269 0)
(-0.0688989 0.483639 0)
(-0.154399 0.646632 0)
(-0.241208 0.71476 0)
(-0.315981 0.713389 0)
(-0.376202 0.663044 0)
(-0.423107 0.578305 0)
(-0.459458 0.468635 0)
(-0.488356 0.339681 0)
(-0.512349 0.194608 0)
(-0.532815 0.035342 0)
(-0.549423 -0.136184 0)
(-0.559585 -0.316541 0)
(-0.557983 -0.498827 0)
(-0.536544 -0.67 0)
(-0.485524 -0.807778 0)
(-0.396384 -0.87828 0)
(-0.26847 -0.837206 0)
(-0.125433 -0.639553 0)
(-0.0275046 -0.263574 0)
(-0.0196767 0.243361 0)
(-0.0834816 0.5633 0)
(-0.172717 0.732944 0)
(-0.251688 0.790585 0)
(-0.308617 0.772949 0)
(-0.345191 0.706902 0)
(-0.366585 0.609894 0)
(-0.378722 0.492197 0)
(-0.387164 0.359113 0)
(-0.396419 0.212762 0)
(-0.409528 0.0534741 0)
(-0.427614 -0.118999 0)
(-0.449232 -0.304085 0)
(-0.469462 -0.498308 0)
(-0.479051 -0.691976 0)
(-0.464289 -0.864298 0)
(-0.408746 -0.977559 0)
(-0.300448 -0.973472 0)
(-0.154458 -0.779594 0)
(-0.0379108 -0.339207 0)
(-0.0289029 0.295778 0)
(-0.106654 0.651921 0)
(-0.195725 0.81451 0)
(-0.255741 0.848404 0)
(-0.280746 0.805809 0)
(-0.279782 0.720288 0)
(-0.263411 0.611275 0)
(-0.241108 0.488832 0)
(-0.220761 0.357146 0)
(-0.208533 0.216863 0)
(-0.208905 0.0665487 0)
(-0.224547 -0.0963227 0)
(-0.255746 -0.274339 0)
(-0.299244 -0.468425 0)
(-0.346487 -0.674467 0)
(-0.381684 -0.877055 0)
(-0.380899 -1.03958 0)
(-0.317203 -1.09268 0)
(-0.187056 -0.93022 0)
(-0.0529163 -0.43557 0)
(-0.0451441 0.368598 0)
(-0.141499 0.749493 0)
(-0.218458 0.880568 0)
(-0.238695 0.872381 0)
(-0.210852 0.795707 0)
(-0.155197 0.688899 0)
(-0.0883387 0.570848 0)
(-0.0226421 0.449451 0)
(0.0327832 0.326646 0)
(0.0712257 0.201169 0)
(0.0876424 0.0698951 0)
(0.0782965 -0.0715831 0)
(0.040989 -0.228574 0)
(-0.0238774 -0.406447 0)
(-0.111018 -0.608138 0)
(-0.206425 -0.827834 0)
(-0.282444 -1.0378 0)
(-0.29706 -1.16696 0)
(-0.216249 -1.0767 0)
(-0.072827 -0.558309 0)
(-0.0699593 0.477588 0)
(-0.183525 0.848282 0)
(-0.216312 0.906211 0)
(-0.15997 0.835341 0)
(-0.0519387 0.720374 0)
(0.0749511 0.596972 0)
(0.200498 0.478504 0)
(0.312364 0.367956 0)
(0.4028 0.263829 0)
(0.466608 0.162775 0)
(0.499739 0.0604579 0)
(0.498487 -0.0484331 0)
(0.45925 -0.170547 0)
(0.379038 -0.314241 0)
(0.257408 -0.488958 0)
(0.101179 -0.701091 0)
(-0.0669037 -0.940962 0)
(-0.198084 -1.15393 0)
(-0.219576 -1.18812 0)
(-0.0916671 -0.714574 0)
(-0.0911171 0.643191 0)
(-0.194568 0.913267 0)
(-0.108909 0.837296 0)
(0.0779775 0.694451 0)
(0.288949 0.554418 0)
(0.48985 0.433061 0)
(0.666383 0.331735 0)
(0.812261 0.246569 0)
(0.92496 0.172538 0)
(1.00328 0.104887 0)
(1.04589 0.039141 0)
(1.05046 -0.029436 0)
(1.01313 -0.106711 0)
(0.928248 -0.20097 0)
(0.788805 -0.32441 0)
(0.589632 -0.493342 0)
(0.335392 -0.721712 0)
(0.0581146 -0.995728 0)
(-0.137828 -1.19821 0)
(-0.0796792 -0.894853 0)
(-0.00342636 0.795748 0)
(0.00403478 0.831424 0)
(0.324344 0.605745 0)
(0.675078 0.429598 0)
(0.96727 0.306817 0)
(1.20138 0.219806 0)
(1.38595 0.157213 0)
(1.52728 0.110611 0)
(1.63061 0.0738401 0)
(1.69967 0.04261 0)
(1.73629 0.0137572 0)
(1.74021 -0.0155174 0)
(1.70865 -0.0485147 0)
(1.63552 -0.0902096 0)
(1.51003 -0.149448 0)
(1.31565 -0.242661 0)
(1.02846 -0.398078 0)
(0.624836 -0.650498 0)
(0.193736 -0.974206 0)
(0.0897307 -0.954758 0)
(0.873622 0.427902 0)
(1.13451 0.377527 0)
(1.5922 0.23366 0)
(1.9405 0.141583 0)
(2.15807 0.0878332 0)
(2.30084 0.0554002 0)
(2.39969 0.0353299 0)
(2.46835 0.0224044 0)
(2.51449 0.0134535 0)
(2.54271 0.00660916 0)
(2.55538 0.000733776 0)
(2.55313 -0.00498412 0)
(2.53497 -0.0114139 0)
(2.49773 -0.0198583 0)
(2.43443 -0.0329467 0)
(2.33069 -0.0566119 0)
(2.1531 -0.104349 0)
(1.82182 -0.203405 0)
(1.30571 -0.378948 0)
(0.955773 -0.456532 0)
)
;

boundaryField
{
    movingWall
    {
        type            fixedValue;
        value           uniform (3 0 0);
    }
    fixedWalls
    {
        type            noSlip;
    }
    frontAndBack
    {
        type            empty;
    }
}


// ************************************************************************* //
