/*--------------------------------*- C++ -*----------------------------------*\
  =========                 |
  \\      /  F ield         | OpenFOAM: The Open Source CFD Toolbox
   \\    /   O peration     | Website:  https://openfoam.org
    \\  /    A nd           | Version:  8
     \\/     M anipulation  |
\*---------------------------------------------------------------------------*/
FoamFile
{
    version     2.0;
    format      ascii;
    class       volScalarField;
    location    "0.2";
    object      p;
}
// * * * * * * * * * * * * * * * * * * * * * * * * * * * * * * * * * * * * * //

dimensions      [0 2 -2 0 0 0 0];

internalField   nonuniform List<scalar> 
400
(
1.64839e-06
-0.0216143
-0.0473113
-0.0666092
-0.0738736
-0.0667137
-0.044852
-0.00940063
0.0374847
0.0926872
0.152138
0.210925
0.263624
0.304896
0.330345
0.33753
0.326991
0.303062
0.274271
0.252961
0.0214726
-0.000893716
-0.0209608
-0.0340689
-0.0378861
-0.0307951
-0.0124555
0.0164239
0.0542994
0.0988156
0.146804
0.194383
0.237246
0.271166
0.292697
0.299972
0.293472
0.276363
0.253619
0.231939
0.0486777
0.0178083
-0.00367895
-0.015469
-0.0185266
-0.0121908
0.00364745
0.028408
0.0609408
0.0994336
0.141317
0.183295
0.221564
0.252263
0.272097
0.279081
0.273278
0.256873
0.231934
0.20161
0.0716129
0.0293978
0.00305494
-0.0101847
-0.0141271
-0.00897861
0.00507839
0.0274868
0.0573722
0.0933184
0.133145
0.173831
0.21166
0.24261
0.262978
0.270158
0.263528
0.244457
0.212853
0.170006
0.0831727
0.0294942
-0.00250564
-0.0180686
-0.0234546
-0.0195774
-0.00683525
0.0142704
0.0431406
0.0787241
0.119157
0.161564
0.202103
0.236295
0.259655
0.268572
0.261464
0.238859
0.198869
0.141806
0.0778325
0.0132427
-0.0244293
-0.0425314
-0.0494719
-0.0467218
-0.0347891
-0.0140393
0.0152599
0.0524559
0.0960074
0.143144
0.189777
0.230743
0.26042
0.273754
0.267798
0.242017
0.192751
0.119836
0.0508866
-0.0239116
-0.0669253
-0.0874135
-0.0957435
-0.0938414
-0.0822251
-0.0610204
-0.030059
0.0105123
0.0595757
0.114532
0.171032
0.223067
0.263527
0.285373
0.283681
0.256325
0.197432
0.106495
-0.00202177
-0.0863138
-0.134113
-0.156537
-0.165862
-0.164441
-0.152729
-0.130497
-0.0969886
-0.0516537
0.00503062
0.0708459
0.141316
0.209552
0.266631
0.302888
0.310531
0.284879
0.216766
0.105039
-0.0851477
-0.178302
-0.230131
-0.253707
-0.263344
-0.261894
-0.249727
-0.226151
-0.189626
-0.138637
-0.0726748
0.00680083
0.0955259
0.185886
0.266958
0.325742
0.350393
0.332128
0.256515
0.120833
-0.202786
-0.304355
-0.359131
-0.382476
-0.391172
-0.388801
-0.375697
-0.350608
-0.310999
-0.254044
-0.177791
-0.0823779
0.0287335
0.147672
0.26159
0.35356
0.406255
0.404533
0.325466
0.162799
-0.359534
-0.469369
-0.525276
-0.545792
-0.551128
-0.546056
-0.531009
-0.504103
-0.461567
-0.398877
-0.312091
-0.199305
-0.0623152
0.0916241
0.248319
0.386711
0.482568
0.511426
0.436927
0.245446
-0.56104
-0.679285
-0.732863
-0.745552
-0.742911
-0.731654
-0.712497
-0.682829
-0.637366
-0.569467
-0.472612
-0.34205
-0.17683
0.0177317
0.227385
0.427567
0.586247
0.666246
0.610822
0.391998
-0.815919
-0.942408
-0.986582
-0.982022
-0.963059
-0.939339
-0.911947
-0.877298
-0.828201
-0.755431
-0.649322
-0.501498
-0.307105
-0.0678472
0.204086
0.482595
0.728306
0.888316
0.876763
0.639633
-1.14032
-1.27191
-1.29181
-1.2529
-1.20358
-1.15721
-1.11483
-1.07121
-1.01657
-0.938542
-0.823772
-0.659626
-0.436333
-0.150213
0.191437
0.564668
0.925744
1.20505
1.27863
1.04889
-1.5683
-1.6901
-1.65421
-1.55131
-1.44998
-1.36633
-1.29961
-1.24142
-1.17822
-1.09364
-0.970168
-0.790479
-0.539184
-0.205714
0.210677
0.693641
1.20188
1.65297
1.88002
1.71922
-2.17267
-2.23435
-2.07768
-1.86264
-1.67904
-1.53993
-1.43841
-1.35993
-1.28522
-1.19274
-1.06029
-0.865632
-0.587389
-0.207042
0.287175
0.893236
1.58347
2.27484
2.76572
2.80664
-3.10733
-2.96283
-2.5614
-2.16371
-1.85998
-1.64638
-1.50175
-1.4002
-1.31356
-1.21383
-1.07359
-0.865569
-0.562251
-0.136243
0.43824
1.18111
2.09281
3.11173
4.04042
4.55105
-4.75101
-3.95114
-3.07156
-2.40483
-1.94582
-1.6469
-1.46125
-1.34324
-1.25202
-1.15207
-1.01095
-0.796901
-0.476638
-0.0130712
0.637229
1.52561
2.69951
4.16129
5.84674
7.45015
-8.17028
-5.22436
-3.35607
-2.36345
-1.78029
-1.43906
-1.25468
-1.15661
-1.09072
-1.01612
-0.898227
-0.703595
-0.396499
0.0671595
0.747557
1.73447
3.15375
5.18348
8.27885
12.6591
-14.5657
-6.45174
-2.89298
-1.69359
-1.16843
-0.919683
-0.832789
-0.824392
-0.836377
-0.829972
-0.774449
-0.640541
-0.39544
0.0016537
0.61201
1.54509
3.01917
5.5438
10.6835
20.3909
)
;

boundaryField
{
    movingWall
    {
        type            zeroGradient;
    }
    fixedWalls
    {
        type            zeroGradient;
    }
    frontAndBack
    {
        type            empty;
    }
}


// ************************************************************************* //
