/*--------------------------------*- C++ -*----------------------------------*\
  =========                 |
  \\      /  F ield         | OpenFOAM: The Open Source CFD Toolbox
   \\    /   O peration     | Website:  https://openfoam.org
    \\  /    A nd           | Version:  8
     \\/     M anipulation  |
\*---------------------------------------------------------------------------*/
FoamFile
{
    version     2.0;
    format      ascii;
    class       volVectorField;
    location    "0.2";
    object      U;
}
// * * * * * * * * * * * * * * * * * * * * * * * * * * * * * * * * * * * * * //

dimensions      [0 1 -1 0 0 0 0];

internalField   nonuniform List<vector> 
400
(
(0.00089064 -0.000888017 0)
(0.000347918 0.000473472 0)
(-0.00461598 0.00209323 0)
(-0.0130452 0.00319655 0)
(-0.0234933 0.00374217 0)
(-0.0346151 0.00381435 0)
(-0.0452507 0.00350122 0)
(-0.0544252 0.00287243 0)
(-0.061327 0.00198148 0)
(-0.0653014 0.000881286 0)
(-0.0658806 -0.000357847 0)
(-0.0628477 -0.00163503 0)
(-0.0563164 -0.00281436 0)
(-0.0468039 -0.00373237 0)
(-0.0352659 -0.00421774 0)
(-0.0230656 -0.00412254 0)
(-0.0118505 -0.00336268 0)
(-0.00332184 -0.00196406 0)
(0.00111967 -0.000172332 0)
(0.00108767 0.00105563 0)
(-0.000407923 -0.000434144 0)
(-0.00636581 0.00634552 0)
(-0.0216395 0.0133995 0)
(-0.0437642 0.0183132 0)
(-0.0698291 0.0207395 0)
(-0.0970586 0.0208569 0)
(-0.122856 0.0189676 0)
(-0.144931 0.0153815 0)
(-0.161359 0.0103992 0)
(-0.170623 0.00435478 0)
(-0.171701 -0.00232732 0)
(-0.164194 -0.00909111 0)
(-0.148472 -0.0152442 0)
(-0.125789 -0.0200022 0)
(-0.0983201 -0.0225864 0)
(-0.0690516 -0.0223718 0)
(-0.0414723 -0.0190729 0)
(-0.0190486 -0.0129448 0)
(-0.00469005 -0.00511322 0)
(7.86757e-05 0.00125124 0)
(-0.00215266 0.00453764 0)
(-0.0143484 0.0218272 0)
(-0.0400202 0.0378652 0)
(-0.0745585 0.0489212 0)
(-0.113785 0.0542059 0)
(-0.154007 0.0539427 0)
(-0.191712 0.0487185 0)
(-0.223755 0.0392382 0)
(-0.247481 0.0262693 0)
(-0.26081 0.0107037 0)
(-0.262358 -0.00634481 0)
(-0.251602 -0.0234727 0)
(-0.229056 -0.0389934 0)
(-0.196412 -0.0510487 0)
(-0.156581 -0.0578372 0)
(-0.113565 -0.0579551 0)
(-0.0720497 -0.0508152 0)
(-0.036748 -0.037076 0)
(-0.0120349 -0.0191518 0)
(-0.00142664 -0.00252615 0)
(-0.00370727 0.0138221 0)
(-0.021841 0.0462548 0)
(-0.0575499 0.0737063 0)
(-0.103737 0.0920067 0)
(-0.154872 0.10025 0)
(-0.2065 0.0988482 0)
(-0.254462 0.0887697 0)
(-0.295047 0.0712119 0)
(-0.325123 0.0475274 0)
(-0.342223 0.0193103 0)
(-0.344674 -0.0114658 0)
(-0.331779 -0.0423515 0)
(-0.304024 -0.0704381 0)
(-0.26326 -0.0925377 0)
(-0.212803 -0.105554 0)
(-0.157351 -0.10704 0)
(-0.102583 -0.0958904 0)
(-0.0544721 -0.0730193 0)
(-0.0191806 -0.0420003 0)
(-0.00277149 -0.0102253 0)
(-0.00505677 0.0269392 0)
(-0.0286649 0.0789407 0)
(-0.0738538 0.119971 0)
(-0.131012 0.146241 0)
(-0.193219 0.157229 0)
(-0.25532 0.153826 0)
(-0.312663 0.137538 0)
(-0.361157 0.110147 0)
(-0.397356 0.0736516 0)
(-0.418504 0.0303973 0)
(-0.422647 -0.0167323 0)
(-0.408813 -0.0641715 0)
(-0.37726 -0.107676 0)
(-0.329726 -0.142546 0)
(-0.269648 -0.164119 0)
(-0.202217 -0.168553 0)
(-0.134073 -0.15382 0)
(-0.0726348 -0.120702 0)
(-0.0262655 -0.0736036 0)
(-0.003995 -0.021571 0)
(-0.00626221 0.0435095 0)
(-0.0349242 0.119354 0)
(-0.0889931 0.176126 0)
(-0.156445 0.211064 0)
(-0.228999 0.224563 0)
(-0.300865 0.218343 0)
(-0.367019 0.19466 0)
(-0.423132 0.155981 0)
(-0.465575 0.104976 0)
(-0.491374 0.0447149 0)
(-0.498277 -0.0210477 0)
(-0.48492 -0.0876561 0)
(-0.45111 -0.149492 0)
(-0.398181 -0.200185 0)
(-0.329386 -0.233186 0)
(-0.250188 -0.242762 0)
(-0.168146 -0.22535 0)
(-0.092361 -0.180992 0)
(-0.0338828 -0.114507 0)
(-0.00526395 -0.0365882 0)
(-0.00737414 0.0632519 0)
(-0.040738 0.166974 0)
(-0.103081 0.241552 0)
(-0.180079 0.285812 0)
(-0.262161 0.301592 0)
(-0.342992 0.291842 0)
(-0.417313 0.259808 0)
(-0.480717 0.208742 0)
(-0.52953 0.141973 0)
(-0.560653 0.0632104 0)
(-0.571541 -0.023059 0)
(-0.560338 -0.111218 0)
(-0.526176 -0.194331 0)
(-0.469654 -0.264254 0)
(-0.393454 -0.312206 0)
(-0.302957 -0.32993 0)
(-0.206479 -0.311468 0)
(-0.114965 -0.255228 0)
(-0.0427443 -0.165832 0)
(-0.00676694 -0.0556972 0)
(-0.00842879 0.0859554 0)
(-0.0461995 0.221301 0)
(-0.116188 0.315537 0)
(-0.201822 0.369615 0)
(-0.292317 0.387383 0)
(-0.380928 0.373462 0)
(-0.462345 0.332357 0)
(-0.53229 0.26821 0)
(-0.58724 0.184968 0)
(-0.624121 0.0868215 0)
(-0.640172 -0.0212403 0)
(-0.633001 -0.132893 0)
(-0.600881 -0.240072 0)
(-0.543314 -0.332875 0)
(-0.461899 -0.399989 0)
(-0.361379 -0.429911 0)
(-0.250397 -0.413146 0)
(-0.141711 -0.345147 0)
(-0.0535945 -0.229324 0)
(-0.00870503 -0.079736 0)
(-0.00946191 0.111461 0)
(-0.0514067 0.281858 0)
(-0.128371 0.397248 0)
(-0.221467 0.461305 0)
(-0.318762 0.480546 0)
(-0.413283 0.461779 0)
(-0.499926 0.411077 0)
(-0.57483 0.333584 0)
(-0.634905 0.233801 0)
(-0.677352 0.116189 0)
(-0.699378 -0.0140878 0)
(-0.698131 -0.15039 0)
(-0.670919 -0.283902 0)
(-0.615809 -0.403184 0)
(-0.532705 -0.494249 0)
(-0.424879 -0.541638 0)
(-0.300471 -0.530914 0)
(-0.173633 -0.452657 0)
(-0.0671895 -0.307304 0)
(-0.0113056 -0.10997 0)
(-0.010541 0.139683 0)
(-0.0565562 0.348209 0)
(-0.139804 0.485677 0)
(-0.238822 0.559253 0)
(-0.34057 0.578968 0)
(-0.438112 0.554453 0)
(-0.526914 0.493721 0)
(-0.603921 0.40304 0)
(-0.666863 0.287392 0)
(-0.713589 0.151254 0)
(-0.741599 -0.000441092 0)
(-0.747819 -0.161277 0)
(-0.728659 -0.32229 0)
(-0.680517 -0.471029 0)
(-0.60096 -0.591036 0)
(-0.490699 -0.662383 0)
(-0.356002 -0.664132 0)
(-0.211329 -0.579339 0)
(-0.0843059 -0.402498 0)
(-0.0148547 -0.148116 0)
(-0.0118228 0.170703 0)
(-0.062105 0.420054 0)
(-0.150996 0.579611 0)
(-0.253904 0.661182 0)
(-0.356734 0.679503 0)
(-0.453003 0.647842 0)
(-0.539265 0.576585 0)
(-0.613786 0.473262 0)
(-0.675617 0.343247 0)
(-0.723733 0.190764 0)
(-0.756407 0.020055 0)
(-0.770777 -0.163338 0)
(-0.76266 -0.351147 0)
(-0.726803 -0.530832 0)
(-0.657928 -0.684195 0)
(-0.552948 -0.786857 0)
(-0.414298 -0.809952 0)
(-0.25464 -0.725652 0)
(-0.105752 -0.517747 0)
(-0.0197514 -0.196402 0)
(-0.0136524 0.205005 0)
(-0.0690144 0.497441 0)
(-0.163053 0.677605 0)
(-0.267098 0.763924 0)
(-0.366189 0.777598 0)
(-0.455012 0.736573 0)
(-0.531956 0.65407 0)
(-0.597267 0.538991 0)
(-0.651891 0.396986 0)
(-0.696483 0.231753 0)
(-0.730659 0.0463925 0)
(-0.75239 -0.155132 0)
(-0.757506 -0.366263 0)
(-0.73951 -0.575718 0)
(-0.690156 -0.765009 0)
(-0.601465 -0.906254 0)
(-0.469625 -0.961953 0)
(-0.302079 -0.889674 0)
(-0.132344 -0.655469 0)
(-0.0265939 -0.257692 0)
(-0.0167403 0.24392 0)
(-0.0791017 0.58107 0)
(-0.177903 0.777849 0)
(-0.279071 0.86298 0)
(-0.367444 0.86676 0)
(-0.440147 0.813048 0)
(-0.498485 0.718278 0)
(-0.545474 0.592688 0)
(-0.584536 0.442014 0)
(-0.618504 0.269152 0)
(-0.648893 0.0756736 0)
(-0.675203 -0.136656 0)
(-0.694152 -0.364037 0)
(-0.698909 -0.598084 0)
(-0.678837 -0.822255 0)
(-0.620602 -1.00747 0)
(-0.511764 -1.10849 0)
(-0.349824 -1.06523 0)
(-0.164748 -0.816681 0)
(-0.0363031 -0.335697 0)
(-0.0224637 0.290428 0)
(-0.0954744 0.672583 0)
(-0.198171 0.877639 0)
(-0.28988 0.951639 0)
(-0.357128 0.937733 0)
(-0.401712 0.866883 0)
(-0.42934 0.758735 0)
(-0.44662 0.624487 0)
(-0.459866 0.469565 0)
(-0.474348 0.295757 0)
(-0.493785 0.102853 0)
(-0.519775 -0.109958 0)
(-0.550886 -0.342434 0)
(-0.581358 -0.59071 0)
(-0.599703 -0.843001 0)
(-0.588085 -1.07292 0)
(-0.524072 -1.23107 0)
(-0.389924 -1.23925 0)
(-0.202899 -0.999107 0)
(-0.0502247 -0.435173 0)
(-0.0332883 0.350432 0)
(-0.12275 0.774384 0)
(-0.225806 0.971867 0)
(-0.295955 1.01926 0)
(-0.326104 0.977274 0)
(-0.326336 0.884379 0)
(-0.308476 0.762505 0)
(-0.283259 0.622746 0)
(-0.259828 0.469455 0)
(-0.245592 0.302939 0)
(-0.246252 0.121129 0)
(-0.265607 -0.0793274 0)
(-0.3048 -0.301953 0)
(-0.360756 -0.548455 0)
(-0.423705 -0.814549 0)
(-0.474152 -1.08172 0)
(-0.48088 -1.30348 0)
(-0.406992 -1.38844 0)
(-0.244092 -1.19371 0)
(-0.0698564 -0.561736 0)
(-0.0528727 0.434809 0)
(-0.165578 0.88776 0)
(-0.256644 1.04918 0)
(-0.281849 1.04813 0)
(-0.250565 0.966588 0)
(-0.185855 0.848475 0)
(-0.106659 0.715237 0)
(-0.0272832 0.575753 0)
(0.041419 0.43207 0)
(0.0911115 0.282566 0)
(0.115162 0.123466 0)
(0.108231 -0.0505536 0)
(0.0665612 -0.246073 0)
(-0.0107229 -0.470153 0)
(-0.118677 -0.727543 0)
(-0.241248 -1.0128 0)
(-0.344017 -1.29268 0)
(-0.372155 -1.47613 0)
(-0.277643 -1.3794 0)
(-0.0949041 -0.72161 0)
(-0.0837556 0.563633 0)
(-0.22033 1.00568 0)
(-0.263354 1.08171 0)
(-0.200306 1.00673 0)
(-0.0742623 0.87902 0)
(0.076529 0.739547 0)
(0.228442 0.603705 0)
(0.366712 0.475013 0)
(0.481643 0.351806 0)
(0.566355 0.230264 0)
(0.6152 0.105407 0)
(0.622802 -0.0289191 0)
(0.583728 -0.180603 0)
(0.492981 -0.36 0)
(0.348206 -0.579676 0)
(0.155624 -0.849846 0)
(-0.0583339 -1.16189 0)
(-0.233033 -1.44913 0)
(-0.273121 -1.5144 0)
(-0.116389 -0.921622 0)
(-0.112815 0.76456 0)
(-0.243366 1.08897 0)
(-0.149133 1.00493 0)
(0.069359 0.842383 0)
(0.320653 0.681901 0)
(0.563831 0.541449 0)
(0.781432 0.422798 0)
(0.96521 0.321721 0)
(1.11124 0.232548 0)
(1.21718 0.149862 0)
(1.28061 0.0685601 0)
(1.29796 -0.016757 0)
(1.26386 -0.112842 0)
(1.1706 -0.229549 0)
(1.00842 -0.382106 0)
(0.768915 -0.592376 0)
(0.45502 -0.881874 0)
(0.103202 -1.23838 0)
(-0.156327 -1.51343 0)
(-0.0949326 -1.14385 0)
(-0.0148153 0.961679 0)
(-0.0156808 1.00281 0)
(0.364028 0.733676 0)
(0.785032 0.526605 0)
(1.14029 0.382194 0)
(1.42936 0.27879 0)
(1.66147 0.203439 0)
(1.84316 0.146573 0)
(1.97973 0.101061 0)
(2.07493 0.0618859 0)
(2.13038 0.0253566 0)
(2.14537 -0.0117447 0)
(2.1163 -0.0531661 0)
(2.0357 -0.104594 0)
(1.89036 -0.176474 0)
(1.65942 -0.289259 0)
(1.31186 -0.480415 0)
(0.813854 -0.798716 0)
(0.269963 -1.21403 0)
(0.126456 -1.20004 0)
(1.06749 0.523565 0)
(1.37782 0.462791 0)
(1.93067 0.289333 0)
(2.35712 0.178078 0)
(2.62777 0.112549 0)
(2.80836 0.0723999 0)
(2.93575 0.0471364 0)
(3.02616 0.0306109 0)
(3.08858 0.0190012 0)
(3.12838 0.0100129 0)
(3.14832 0.00224544 0)
(3.1491 -0.0052763 0)
(3.12959 -0.0135581 0)
(3.08615 -0.0240398 0)
(3.01072 -0.0396552 0)
(2.88635 -0.0672998 0)
(2.6734 -0.123621 0)
(2.2725 -0.243959 0)
(1.63405 -0.463623 0)
(1.1916 -0.565571 0)
)
;

boundaryField
{
    movingWall
    {
        type            fixedValue;
        value           uniform (3.7 0 0);
    }
    fixedWalls
    {
        type            noSlip;
    }
    frontAndBack
    {
        type            empty;
    }
}


// ************************************************************************* //
