/*--------------------------------*- C++ -*----------------------------------*\
  =========                 |
  \\      /  F ield         | OpenFOAM: The Open Source CFD Toolbox
   \\    /   O peration     | Website:  https://openfoam.org
    \\  /    A nd           | Version:  8
     \\/     M anipulation  |
\*---------------------------------------------------------------------------*/
FoamFile
{
    version     2.0;
    format      ascii;
    class       volScalarField;
    location    "0.2";
    object      p;
}
// * * * * * * * * * * * * * * * * * * * * * * * * * * * * * * * * * * * * * //

dimensions      [0 2 -2 0 0 0 0];

internalField   nonuniform List<scalar> 
400
(
1.46874e-05
-0.0151375
-0.0333395
-0.0470669
-0.0521415
-0.0467633
-0.0307639
-0.00507977
0.0285546
0.0677484
0.10954
0.15052
0.187057
0.215663
0.233494
0.23895
0.232311
0.216323
0.196588
0.181548
0.0150768
-0.000575922
-0.0147984
-0.0241444
-0.0267755
-0.0214606
-0.00798742
0.0130137
0.0402716
0.0719599
0.10576
0.138971
0.168714
0.192241
0.207338
0.212797
0.208888
0.197593
0.182045
0.166698
0.034363
0.0127383
-0.00254083
-0.0110062
-0.0131004
-0.00826456
0.00353888
0.0217524
0.0453615
0.0729002
0.102452
0.131718
0.158174
0.179346
0.193163
0.198368
0.194966
0.184252
0.167267
0.145875
0.0510356
0.0213776
0.00256683
-0.00698259
-0.00965097
-0.00548521
0.00531737
0.0221647
0.0441752
0.0701033
0.0982627
0.126532
0.152469
0.173548
0.187495
0.192707
0.18876
0.176367
0.154961
0.124946
0.0603458
0.0224677
-0.000484729
-0.0117027
-0.0152355
-0.011636
-0.00130555
0.0151227
0.0368685
0.0628536
0.0915453
0.120893
0.148389
0.171272
0.186849
0.192961
0.188618
0.173964
0.147074
0.107476
0.058675
0.0128092
-0.0143383
-0.0273063
-0.0316218
-0.0282576
-0.0177708
-0.000810286
0.0219502
0.0495876
0.080691
0.113223
0.144512
0.171413
0.19062
0.199189
0.195371
0.178648
0.145791
0.0957623
0.0429253
-0.010646
-0.04179
-0.0562787
-0.0610286
-0.0573865
-0.0460224
-0.0275611
-0.00253409
0.0283207
0.0637339
0.101677
0.139272
0.172874
0.198368
0.211751
0.21022
0.192346
0.153379
0.0917858
0.0101081
-0.0509299
-0.0856917
-0.101196
-0.105782
-0.101179
-0.0881462
-0.0672366
-0.0387727
-0.00322745
0.0383547
0.0840244
0.13072
0.174242
0.209477
0.231036
0.23463
0.217454
0.172663
0.0980239
-0.0429184
-0.111277
-0.149101
-0.164802
-0.168321
-0.161855
-0.146262
-0.12197
-0.0889973
-0.0474211
0.00209501
0.0578392
0.11669
0.173922
0.223283
0.257628
0.270602
0.257261
0.207629
0.118211
-0.119645
-0.195314
-0.235351
-0.24992
-0.250976
-0.241374
-0.222118
-0.193464
-0.155003
-0.106231
-0.0471999
0.0208784
0.0950766
0.170314
0.239172
0.292407
0.320873
0.316376
0.264111
0.158188
-0.224208
-0.307335
-0.348129
-0.359295
-0.355602
-0.340908
-0.316454
-0.282278
-0.237384
-0.180453
-0.110617
-0.0282206
0.0644186
0.162243
0.256866
0.336747
0.389187
0.401243
0.350676
0.227059
-0.362034
-0.452829
-0.491622
-0.495341
-0.483041
-0.46011
-0.428145
-0.386874
-0.334514
-0.26864
-0.187097
-0.0888826
0.024864
0.149755
0.276997
0.392923
0.480695
0.520823
0.479881
0.339001
-0.541344
-0.639474
-0.670721
-0.659741
-0.632361
-0.596177
-0.553165
-0.502542
-0.441427
-0.365933
-0.272194
-0.15734
-0.0206097
0.135208
0.301969
0.464725
0.602491
0.687468
0.670098
0.51634
-0.776595
-0.878946
-0.891179
-0.852685
-0.799757
-0.742689
-0.683512
-0.620424
-0.548926
-0.463197
-0.357213
-0.22569
-0.0652006
0.12423
0.336737
0.557946
0.763979
0.917818
0.948253
0.795305
-1.09613
-1.18989
-1.15913
-1.07118
-0.976782
-0.8882
-0.806257
-0.727004
-0.643429
-0.547126
-0.429426
-0.282143
-0.0984671
0.125579
0.38855
0.679817
0.976098
1.23279
1.35325
1.23629
-1.55706
-1.60172
-1.47925
-1.30628
-1.14817
-1.01504
-0.903373
-0.804832
-0.708406
-0.602195
-0.474384
-0.313501
-0.108797
0.148837
0.464814
0.836812
1.24883
1.6552
1.93747
1.9375
-2.27406
-2.15726
-1.85162
-1.54171
-1.29199
-1.10081
-0.954504
-0.83628
-0.728794
-0.615599
-0.481257
-0.310801
-0.0892061
0.19879
0.56802
1.03034
1.58695
2.20429
2.76559
3.05637
-3.52172
-2.90955
-2.2493
-1.739
-1.37225
-1.11637
-0.938556
-0.807452
-0.696498
-0.583888
-0.450642
-0.278618
-0.0487503
0.260949
0.677459
1.2339
1.96159
2.86748
3.92229
4.92541
-6.06038
-3.87708
-2.49101
-1.73718
-1.2765
-0.98895
-0.812058
-0.695831
-0.604181
-0.511534
-0.397455
-0.242748
-0.0267179
0.277099
0.706879
1.32134
2.20208
3.47147
5.46193
8.34757
-10.6475
-4.81713
-2.21475
-1.29519
-0.870137
-0.649508
-0.543475
-0.491777
-0.455922
-0.412163
-0.343025
-0.232672
-0.0631878
0.188975
0.562028
1.12753
2.02621
3.60143
6.98047
13.5943
)
;

boundaryField
{
    movingWall
    {
        type            zeroGradient;
    }
    fixedWalls
    {
        type            zeroGradient;
    }
    frontAndBack
    {
        type            empty;
    }
}


// ************************************************************************* //
