/*--------------------------------*- C++ -*----------------------------------*\
  =========                 |
  \\      /  F ield         | OpenFOAM: The Open Source CFD Toolbox
   \\    /   O peration     | Website:  https://openfoam.org
    \\  /    A nd           | Version:  8
     \\/     M anipulation  |
\*---------------------------------------------------------------------------*/
FoamFile
{
    version     2.0;
    format      ascii;
    class       surfaceScalarField;
    location    "0.2";
    object      phi;
}
// * * * * * * * * * * * * * * * * * * * * * * * * * * * * * * * * * * * * * //

dimensions      [0 3 -1 0 0 0 0];

internalField   nonuniform List<scalar> 
760
(
3.47984e-08
-3.49121e-08
-6.31684e-08
9.79645e-08
-3.02665e-07
2.39497e-07
-6.39652e-07
3.36987e-07
-1.02432e-06
3.84668e-07
-1.4111e-06
3.86777e-07
-1.76106e-06
3.49961e-07
-2.04222e-06
2.81161e-07
-2.22932e-06
1.87103e-07
-2.30414e-06
7.4821e-08
-2.25664e-06
-4.74966e-08
-2.08678e-06
-1.69862e-07
-1.80643e-06
-2.80342e-07
-1.44084e-06
-3.65597e-07
-1.02865e-06
-4.12192e-07
-6.19922e-07
-4.08724e-07
-2.71199e-07
-3.48722e-07
-3.71618e-08
-2.34038e-07
4.46537e-08
-8.18183e-08
4.46509e-08
-9.42102e-08
5.93021e-08
-4.80274e-07
4.84021e-07
-1.13958e-06
8.98807e-07
-1.99094e-06
1.18834e-06
-2.93481e-06
1.32854e-06
-3.87256e-06
1.32453e-06
-4.71532e-06
1.19272e-06
-5.3879e-06
9.53749e-07
-5.83084e-06
6.30042e-07
-6.00238e-06
2.46365e-07
-5.88134e-06
-1.68539e-07
-5.47052e-06
-5.80674e-07
-4.80004e-06
-9.50822e-07
-3.92905e-06
-1.23659e-06
-2.94451e-06
-1.39674e-06
-1.9552e-06
-1.39803e-06
-1.07971e-06
-1.22421e-06
-4.27375e-07
-8.86373e-07
-7.0881e-08
-4.38308e-07
-2.62321e-08
-2.47833e-07
3.07127e-07
-9.44174e-07
1.18036e-06
-2.00272e-06
1.95736e-06
-3.30173e-06
2.48735e-06
-4.70549e-06
2.73229e-06
-6.08069e-06
2.69973e-06
-7.30631e-06
2.41834e-06
-8.27915e-06
1.92659e-06
-8.91739e-06
1.26828e-06
-9.1639e-06
4.92878e-07
-8.99012e-06
-3.42316e-07
-8.40039e-06
-1.1704e-06
-7.43589e-06
-1.91532e-06
-6.17663e-06
-2.49584e-06
-4.73966e-06
-2.83371e-06
-3.27137e-06
-2.86632e-06
-1.93241e-06
-2.56318e-06
-8.74996e-07
-1.94379e-06
-2.14312e-07
-1.09899e-06
-2.40544e-07
-3.87896e-07
6.95022e-07
-1.38425e-06
2.17672e-06
-2.82482e-06
3.39793e-06
-4.53817e-06
4.2007e-06
-6.35327e-06
4.54739e-06
-8.10933e-06
4.4558e-06
-9.66286e-06
3.97187e-06
-1.08922e-05
3.15588e-06
-1.17007e-05
2.07679e-06
-1.20204e-05
8.12651e-07
-1.18163e-05
-5.46425e-07
-1.10909e-05
-1.89578e-06
-9.88949e-06
-3.11677e-06
-8.303e-06
-4.08233e-06
-6.46774e-06
-4.66897e-06
-4.5585e-06
-4.77556e-06
-2.77377e-06
-4.3479e-06
-1.31273e-06
-3.40483e-06
-3.47463e-07
-2.06426e-06
-5.88006e-07
-5.14289e-07
1.20932e-06
-1.79432e-06
3.45675e-06
-3.59937e-06
5.20297e-06
-5.70448e-06
6.30581e-06
-7.90259e-06
6.74551e-06
-1.00086e-05
6.56182e-06
-1.18621e-05
5.8254e-06
-1.3329e-05
4.62275e-06
-1.43028e-05
3.05055e-06
-1.4707e-05
1.21688e-06
-1.44992e-05
-7.54254e-07
-1.3676e-05
-2.71892e-06
-1.22799e-05
-4.5129e-06
-1.04044e-05
-5.95783e-06
-8.19739e-06
-6.87598e-06
-5.85776e-06
-7.11518e-06
-3.62328e-06
-6.58238e-06
-1.74829e-06
-5.27982e-06
-4.74058e-07
-3.33849e-06
-1.06206e-06
-6.31634e-07
1.84095e-06
-2.18117e-06
5.00629e-06
-4.33466e-06
7.35646e-06
-6.81281e-06
8.78396e-06
-9.37271e-06
9.30541e-06
-1.18075e-05
8.9966e-06
-1.39441e-05
7.96203e-06
-1.56407e-05
6.31935e-06
-1.67847e-05
4.19449e-06
-1.72927e-05
1.72489e-06
-1.71135e-05
-9.33457e-07
-1.62333e-05
-3.59905e-06
-1.46844e-05
-6.06185e-06
-1.25542e-05
-8.08801e-06
-9.99438e-06
-9.4358e-06
-7.22385e-06
-9.88572e-06
-4.52199e-06
-9.28424e-06
-2.20779e-06
-7.59402e-06
-6.0523e-07
-4.94105e-06
-1.66729e-06
-7.44276e-07
2.58522e-06
-2.55305e-06
6.81506e-06
-5.04e-06
9.8434e-06
-7.87132e-06
1.16153e-05
-1.07695e-05
1.22036e-05
-1.35094e-05
1.17365e-05
-1.59102e-05
1.03629e-05
-1.78277e-05
8.23687e-06
-1.91475e-05
5.51428e-06
-1.97816e-05
2.35899e-06
-1.96691e-05
-1.04602e-06
-1.87812e-05
-4.48692e-06
-1.71319e-05
-7.71113e-06
-1.47922e-05
-1.04277e-05
-1.19069e-05
-1.23212e-05
-8.70745e-06
-1.30852e-05
-5.51475e-06
-1.24769e-05
-2.7219e-06
-1.03869e-05
-7.53312e-07
-6.90964e-06
-2.42061e-06
-8.55777e-07
3.441e-06
-2.91697e-06
8.87626e-06
-5.72134e-06
1.26478e-05
-8.87932e-06
1.47733e-05
-1.20811e-05
1.54054e-05
-1.50885e-05
1.47438e-05
-1.77201e-05
1.29945e-05
-1.98368e-05
1.03535e-05
-2.13287e-05
7.00615e-06
-2.21072e-05
3.13755e-06
-2.21026e-05
-1.0506e-06
-2.12677e-05
-5.32183e-06
-1.95897e-05
-9.38916e-06
-1.711e-05
-1.29074e-05
-1.39508e-05
-1.54804e-05
-1.03423e-05
-1.66936e-05
-6.64069e-06
-1.61786e-05
-3.32081e-06
-1.37067e-05
-9.30767e-07
-9.29968e-06
-3.35137e-06
-9.69563e-07
4.41056e-06
-3.27932e-06
1.1186e-05
-6.38119e-06
1.57496e-05
-9.82631e-06
1.82184e-05
-1.3276e-05
1.88551e-05
-1.64872e-05
1.7955e-05
-1.92884e-05
1.57958e-05
-2.15562e-05
1.26213e-05
-2.31951e-05
8.64498e-06
-2.41232e-05
4.0657e-06
-2.42657e-05
-9.08098e-07
-2.35556e-05
-6.03198e-06
-2.19453e-05
-1.09994e-05
-1.94316e-05
-1.54211e-05
-1.6092e-05
-1.88199e-05
-1.21319e-05
-2.06538e-05
-7.92566e-06
-2.03848e-05
-4.03176e-06
-1.76007e-05
-1.15031e-06
-1.21811e-05
-4.50168e-06
-1.0908e-06
5.50136e-06
-3.64929e-06
1.37445e-05
-7.0218e-06
1.91221e-05
-1.06936e-05
2.18902e-05
-1.43028e-05
2.24643e-05
-1.7614e-05
2.12661e-05
-2.04807e-05
1.86625e-05
-2.28105e-05
1.49511e-05
-2.45358e-05
1.03703e-05
-2.55931e-05
5.12304e-06
-2.59104e-05
-5.90871e-07
-2.54032e-05
-6.53911e-06
-2.39844e-05
-1.24182e-05
-2.15896e-05
-1.7816e-05
-1.82243e-05
-2.21852e-05
-1.40325e-05
-2.48456e-05
-9.37352e-06
-2.50437e-05
-4.87744e-06
-2.20967e-05
-1.4259e-06
-1.56327e-05
-5.92757e-06
-1.2297e-06
6.73106e-06
-4.04465e-06
1.65595e-05
-7.65011e-06
2.27276e-05
-1.14563e-05
2.56964e-05
-1.50886e-05
2.60967e-05
-1.83391e-05
2.45166e-05
-2.11078e-05
2.14313e-05
-2.33534e-05
1.71967e-05
-2.50541e-05
1.2071e-05
-2.61804e-05
6.24929e-06
-2.66755e-05
-9.57222e-08
-2.64464e-05
-6.76819e-06
-2.53661e-05
-1.34985e-05
-2.32964e-05
-1.98858e-05
-2.01399e-05
-2.53418e-05
-1.59298e-05
-2.90557e-05
-1.09531e-05
-3.00204e-05
-5.87346e-06
-2.71763e-05
-1.77458e-06
-1.97315e-05
-7.70216e-06
-1.40694e-06
8.13799e-06
-4.49949e-06
1.9652e-05
-8.28193e-06
2.651e-05
-1.2081e-05
2.94954e-05
-1.55316e-05
2.95473e-05
-1.84842e-05
2.74692e-05
-2.09152e-05
2.38622e-05
-2.28589e-05
1.91404e-05
-2.43603e-05
1.35724e-05
-2.54417e-05
7.33061e-06
-2.60788e-05
5.41358e-07
-2.61843e-05
-6.66259e-06
-2.56012e-05
-1.40817e-05
-2.41134e-05
-2.13735e-05
-2.14935e-05
-2.79616e-05
-1.76052e-05
-3.2944e-05
-1.25763e-05
-3.50492e-05
-7.02279e-06
-3.27299e-05
-2.21941e-06
-2.45349e-05
-9.92157e-06
-1.66252e-06
9.80051e-06
-5.07244e-06
2.30619e-05
-8.93895e-06
3.03765e-05
-1.251e-05
3.30665e-05
-1.54761e-05
3.25133e-05
-1.77953e-05
2.97884e-05
-1.95591e-05
2.5626e-05
-2.09048e-05
2.04862e-05
-2.19634e-05
1.46309e-05
-2.28253e-05
8.19259e-06
-2.35168e-05
1.23278e-06
-2.39769e-05
-6.20242e-06
-2.40392e-05
-1.40194e-05
-2.34234e-05
-2.19894e-05
-2.17604e-05
-2.96246e-05
-1.86879e-05
-3.60165e-05
-1.40617e-05
-3.96755e-05
-8.30244e-06
-3.84891e-05
-2.79347e-06
-3.00439e-05
-1.2715e-05
-2.06933e-06
1.18698e-05
-5.8487e-06
2.68413e-05
-9.62239e-06
3.41502e-05
-1.26102e-05
3.60543e-05
-1.465e-05
3.45532e-05
-1.58818e-05
3.10203e-05
-1.65574e-05
2.63015e-05
-1.69399e-05
2.08687e-05
-1.72564e-05
1.49474e-05
-1.76732e-05
8.60939e-06
-1.82784e-05
1.83797e-06
-1.90596e-05
-5.42122e-06
-1.98738e-05
-1.32052e-05
-2.04134e-05
-2.14497e-05
-2.01905e-05
-2.98476e-05
-1.85883e-05
-3.76186e-05
-1.50685e-05
-4.31954e-05
-9.63066e-06
-4.39269e-05
-3.54277e-06
-3.61318e-05
-1.62578e-05
-2.74825e-06
1.46181e-05
-6.91185e-06
3.10049e-05
-1.02218e-05
3.74602e-05
-1.20415e-05
3.7874e-05
-1.25257e-05
3.50373e-05
-1.20936e-05
3.05882e-05
-1.11957e-05
2.54036e-05
-1.02246e-05
1.98976e-05
-9.4911e-06
1.42139e-05
-9.22421e-06
8.3425e-06
-9.57047e-06
2.18423e-06
-1.05803e-05
-4.41135e-06
-1.21735e-05
-1.1612e-05
-1.40799e-05
-1.95433e-05
-1.57674e-05
-2.816e-05
-1.64047e-05
-3.69813e-05
-1.49798e-05
-4.46203e-05
-1.0783e-05
-4.81237e-05
-4.5132e-06
-4.24016e-05
-2.0771e-05
-3.85517e-06
1.84733e-05
-8.20368e-06
3.53534e-05
-1.02577e-05
3.95142e-05
-9.9608e-06
3.75771e-05
-8.04818e-06
3.31247e-05
-5.30625e-06
2.78463e-05
-2.3787e-06
2.24761e-05
2.57032e-07
1.72619e-05
2.25839e-06
1.22126e-05
3.37849e-06
7.2224e-06
3.441e-06
2.12172e-06
2.33653e-06
-3.30689e-06
4.98007e-08
-9.32532e-06
-3.26956e-06
-1.6224e-05
-7.18242e-06
-2.42472e-05
-1.07985e-05
-3.33653e-05
-1.26901e-05
-4.27286e-05
-1.11827e-05
-4.96311e-05
-5.66843e-06
-4.79159e-05
-2.64394e-05
-5.43454e-06
2.39078e-05
-9.03813e-06
3.8957e-05
-8.23636e-06
3.87125e-05
-4.4217e-06
3.37624e-05
8.2353e-07
2.78795e-05
6.38345e-06
2.22863e-05
1.15467e-05
1.73129e-05
1.5879e-05
1.29295e-05
1.91111e-05
8.98055e-06
2.10572e-05
5.27628e-06
2.15662e-05
1.61274e-06
2.04991e-05
-2.23977e-06
1.77365e-05
-6.56273e-06
1.32334e-05
-1.17208e-05
7.1585e-06
-1.81723e-05
1.61949e-07
-2.63687e-05
-6.24782e-06
-3.63188e-05
-9.44841e-06
-4.64305e-05
-6.62763e-06
-5.07366e-05
-3.30671e-05
-6.83194e-06
3.07397e-05
-6.677e-06
3.88021e-05
-2.06417e-07
3.22419e-05
8.6709e-06
2.48851e-05
1.77266e-05
1.88238e-05
2.59372e-05
1.40757e-05
3.2861e-05
1.03891e-05
3.8329e-05
7.46146e-06
4.2283e-05
5.0266e-06
4.46858e-05
2.87348e-06
4.54729e-05
8.25622e-07
4.45244e-05
-1.29131e-06
4.16482e-05
-3.68651e-06
3.65885e-05
-6.6611e-06
2.91011e-05
-1.0685e-05
1.92009e-05
-1.64685e-05
7.75277e-06
-2.48707e-05
-2.47239e-06
-3.62053e-05
-6.03273e-06
-4.71763e-05
-3.90998e-05
-3.23758e-06
3.39773e-05
7.9735e-06
2.7591e-05
2.30553e-05
1.71601e-05
3.68052e-05
1.11352e-05
4.81518e-05
7.47721e-06
5.71374e-05
5.09008e-06
6.4041e-05
3.48548e-06
6.91468e-05
2.35572e-06
7.26728e-05
1.50058e-06
7.47519e-05
7.94363e-07
7.54247e-05
1.52788e-07
7.46317e-05
-4.98275e-07
7.21829e-05
-1.23768e-06
6.77163e-05
-2.19449e-06
6.06371e-05
-3.60586e-06
5.01189e-05
-5.95028e-06
3.54342e-05
-1.0186e-05
1.72519e-05
-1.80231e-05
1.15415e-06
-3.10785e-05
-3.79457e-05
3.39773e-05
6.15683e-05
7.87284e-05
8.98636e-05
9.73408e-05
0.000102431
0.000105916
0.000108272
0.000109773
0.000110567
0.00011072
0.000110222
0.000108984
0.000106789
0.000103184
9.72332e-05
8.70473e-05
6.90242e-05
3.79457e-05
)
;

boundaryField
{
    movingWall
    {
        type            calculated;
        value           uniform 0;
    }
    fixedWalls
    {
        type            calculated;
        value           uniform 0;
    }
    frontAndBack
    {
        type            empty;
        value           nonuniform List<scalar> 0();
    }
}


// ************************************************************************* //
