/*--------------------------------*- C++ -*----------------------------------*\
  =========                 |
  \\      /  F ield         | OpenFOAM: The Open Source CFD Toolbox
   \\    /   O peration     | Website:  https://openfoam.org
    \\  /    A nd           | Version:  8
     \\/     M anipulation  |
\*---------------------------------------------------------------------------*/
FoamFile
{
    version     2.0;
    format      ascii;
    class       volVectorField;
    location    "0.2";
    object      U;
}
// * * * * * * * * * * * * * * * * * * * * * * * * * * * * * * * * * * * * * //

dimensions      [0 1 -1 0 0 0 0];

internalField   nonuniform List<vector> 
400
(
(0.00063648 -0.000632839 0)
(0.000285175 0.000318668 0)
(-0.00318269 0.00147159 0)
(-0.00913247 0.00226776 0)
(-0.0165436 0.00266274 0)
(-0.0244376 0.0027083 0)
(-0.0319595 0.00246765 0)
(-0.0383962 0.00199768 0)
(-0.0431731 0.00134697 0)
(-0.0458517 0.000562642 0)
(-0.0461434 -0.000300375 0)
(-0.0439407 -0.00117237 0)
(-0.0393561 -0.00196613 0)
(-0.0327591 -0.00258001 0)
(-0.0247944 -0.00290735 0)
(-0.0163656 -0.00285245 0)
(-0.00856844 -0.00235356 0)
(-0.00255898 -0.00141245 0)
(0.000661734 -0.000173349 0)
(0.00073382 0.000714746 0)
(-0.000256137 -0.000351979 0)
(-0.00437014 0.00439512 0)
(-0.0150559 0.00941406 0)
(-0.0306423 0.0129502 0)
(-0.0490723 0.0147005 0)
(-0.0683334 0.0147613 0)
(-0.0865297 0.013351 0)
(-0.102004 0.0107201 0)
(-0.113398 0.00712447 0)
(-0.11969 0.00283901 0)
(-0.120236 -0.00181709 0)
(-0.114837 -0.00645985 0)
(-0.103812 -0.0106377 0)
(-0.0880516 -0.0138536 0)
(-0.069035 -0.0156151 0)
(-0.0487621 -0.0155153 0)
(-0.0295699 -0.0133421 0)
(-0.0138144 -0.00920997 0)
(-0.00355839 -0.0038031 0)
(-1.86534e-05 0.000749394 0)
(-0.00146026 0.00306116 0)
(-0.00991438 0.0151797 0)
(-0.0278818 0.0265924 0)
(-0.0521993 0.0345417 0)
(-0.079905 0.0383496 0)
(-0.108317 0.0381143 0)
(-0.134876 0.0342639 0)
(-0.157313 0.0273657 0)
(-0.173761 0.0180553 0)
(-0.182814 0.00704472 0)
(-0.183598 -0.00483989 0)
(-0.175849 -0.016628 0)
(-0.160012 -0.0272098 0)
(-0.137295 -0.0353954 0)
(-0.109692 -0.0400374 0)
(-0.0798946 -0.0402212 0)
(-0.0510414 -0.0355149 0)
(-0.02632 -0.0262492 0)
(-0.0087963 -0.0138982 0)
(-0.00110689 -0.00208414 0)
(-0.00252972 0.00946088 0)
(-0.0151229 0.0322144 0)
(-0.0401479 0.0517649 0)
(-0.0726961 0.0649293 0)
(-0.108828 0.0708677 0)
(-0.145291 0.0697821 0)
(-0.179046 0.0623857 0)
(-0.207414 0.0496433 0)
(-0.228195 0.0326662 0)
(-0.239726 0.0127151 0)
(-0.240958 -0.00874999 0)
(-0.231542 -0.0300305 0)
(-0.211938 -0.0492025 0)
(-0.1835 -0.0642149 0)
(-0.14852 -0.0730932 0)
(-0.110163 -0.0742534 0)
(-0.0722213 -0.0669089 0)
(-0.0386941 -0.0515039 0)
(-0.0138406 -0.0301831 0)
(-0.00207459 -0.00771556 0)
(-0.00346144 0.0185208 0)
(-0.019905 0.0550542 0)
(-0.0516684 0.0843172 0)
(-0.0920534 0.103233 0)
(-0.136091 0.111138 0)
(-0.179987 0.108546 0)
(-0.220318 0.0965793 0)
(-0.254119 0.0766817 0)
(-0.278974 0.0504986 0)
(-0.293041 0.0198886 0)
(-0.295111 -0.0130065 0)
(-0.284699 -0.045702 0)
(-0.262169 -0.0753792 0)
(-0.228858 -0.0990095 0)
(-0.187182 -0.113628 0)
(-0.140651 -0.116773 0)
(-0.0936679 -0.107059 0)
(-0.0511429 -0.0847898 0)
(-0.018759 -0.0525236 0)
(-0.0029463 -0.0159195 0)
(-0.00430909 0.0300066 0)
(-0.0243799 0.0834063 0)
(-0.0625835 0.123976 0)
(-0.110457 0.149155 0)
(-0.161994 0.15882 0)
(-0.21288 0.154054 0)
(-0.25938 0.136558 0)
(-0.298343 0.108349 0)
(-0.327228 0.0716453 0)
(-0.34407 0.0289104 0)
(-0.347509 -0.0170409 0)
(-0.336863 -0.0629396 0)
(-0.312274 -0.105039 0)
(-0.274895 -0.139235 0)
(-0.227089 -0.161384 0)
(-0.172577 -0.167857 0)
(-0.116345 -0.156311 0)
(-0.0643333 -0.126524 0)
(-0.0239136 -0.0811577 0)
(-0.00382839 -0.026662 0)
(-0.0051208 0.0437807 0)
(-0.0286835 0.117035 0)
(-0.0730781 0.17046 0)
(-0.12809 0.202364 0)
(-0.186679 0.213541 0)
(-0.24406 0.205945 0)
(-0.296276 0.182053 0)
(-0.340099 0.144557 0)
(-0.372964 0.0962711 0)
(-0.392858 0.0402277 0)
(-0.39828 -0.0201525 0)
(-0.388302 -0.0808827 0)
(-0.362718 -0.137313 0)
(-0.322301 -0.184197 0)
(-0.269139 -0.21601 0)
(-0.206962 -0.227596 0)
(-0.141247 -0.21515 0)
(-0.0790462 -0.177387 0)
(-0.029734 -0.116661 0)
(-0.00483755 -0.0401536 0)
(-0.0059356 0.0597852 0)
(-0.0329348 0.15577 0)
(-0.0833056 0.223467 0)
(-0.145027 0.262419 0)
(-0.210038 0.274756 0)
(-0.27316 0.263652 0)
(-0.330345 0.232594 0)
(-0.37844 0.185051 0)
(-0.415002 0.12444 0)
(-0.438079 0.0542794 0)
(-0.446088 -0.0215346 0)
(-0.437826 -0.0984423 0)
(-0.41262 -0.170997 0)
(-0.370647 -0.23281 0)
(-0.313416 -0.276795 0)
(-0.244347 -0.295847 0)
(-0.16917 -0.284053 0)
(-0.0960303 -0.238293 0)
(-0.0366623 -0.159974 0)
(-0.0060946 -0.0568573 0)
(-0.00679245 0.0780292 0)
(-0.0372532 0.199507 0)
(-0.0933941 0.282652 0)
(-0.161232 0.328689 0)
(-0.231683 0.341607 0)
(-0.299305 0.326222 0)
(-0.360156 0.287296 0)
(-0.41138 0.229197 0)
(-0.450865 0.155919 0)
(-0.476896 0.0713456 0)
(-0.487926 -0.020355 0)
(-0.482508 -0.114291 0)
(-0.459419 -0.204438 0)
(-0.418004 -0.283384 0)
(-0.358812 -0.342382 0)
(-0.284471 -0.371952 0)
(-0.200495 -0.363261 0)
(-0.115908 -0.310265 0)
(-0.0451439 -0.212378 0)
(-0.00773305 -0.0774895 0)
(-0.00775204 0.0985999 0)
(-0.0418171 0.248202 0)
(-0.10352 0.347564 0)
(-0.176605 0.400219 0)
(-0.25096 0.412714 0)
(-0.321089 0.39205 0)
(-0.383453 0.34458 0)
(-0.435801 0.275692 0)
(-0.47665 0.189918 0)
(-0.504778 0.091332 0)
(-0.518871 -0.015901 0)
(-0.51736 -0.126904 0)
(-0.498452 -0.235446 0)
(-0.460462 -0.333388 0)
(-0.402543 -0.410398 0)
(-0.325856 -0.454284 0)
(-0.23493 -0.452364 0)
(-0.139086 -0.394164 0)
(-0.0556439 -0.275403 0)
(-0.0099202 -0.103033 0)
(-0.00893598 0.121726 0)
(-0.0469679 0.301921 0)
(-0.114025 0.417583 0)
(-0.191057 0.475541 0)
(-0.266953 0.485911 0)
(-0.336515 0.458574 0)
(-0.397046 0.40185 0)
(-0.447329 0.322257 0)
(-0.486889 0.224791 0)
(-0.51533 0.113499 0)
(-0.531863 -0.00779991 0)
(-0.535013 -0.134697 0)
(-0.522528 -0.26129 0)
(-0.491592 -0.379256 0)
(-0.439541 -0.477051 0)
(-0.365259 -0.539681 0)
(-0.271123 -0.549706 0)
(-0.16561 -0.490265 0)
(-0.0686768 -0.350688 0)
(-0.0128938 -0.134779 0)
(-0.0105961 0.147927 0)
(-0.0533676 0.360937 0)
(-0.125555 0.491827 0)
(-0.204532 0.552419 0)
(-0.27837 0.557898 0)
(-0.342794 0.521914 0)
(-0.396591 0.455149 0)
(-0.440127 0.365316 0)
(-0.474382 0.257738 0)
(-0.500167 0.136169 0)
(-0.517562 0.00369556 0)
(-0.525516 -0.136267 0)
(-0.521583 -0.278835 0)
(-0.501913 -0.416322 0)
(-0.461769 -0.53677 0)
(-0.396921 -0.622782 0)
(-0.306068 -0.651554 0)
(-0.194898 -0.59756 0)
(-0.0848346 -0.439721 0)
(-0.0170242 -0.174424 0)
(-0.0132376 0.178315 0)
(-0.0622224 0.425873 0)
(-0.139136 0.568935 0)
(-0.216809 0.627409 0)
(-0.283117 0.623756 0)
(-0.335803 0.576452 0)
(-0.37606 0.49884 0)
(-0.406483 0.399748 0)
(-0.429953 0.284584 0)
(-0.448823 0.156485 0)
(-0.46437 0.017417 0)
(-0.476348 -0.130731 0)
(-0.482555 -0.284857 0)
(-0.478506 -0.43897 0)
(-0.457495 -0.582005 0)
(-0.411608 -0.695342 0)
(-0.334172 -0.751003 0)
(-0.2252 -0.712675 0)
(-0.104772 -0.543358 0)
(-0.0229139 -0.22425 0)
(-0.0178262 0.215122 0)
(-0.0755388 0.49777 0)
(-0.15595 0.646511 0)
(-0.226679 0.695063 0)
(-0.277085 0.67625 0)
(-0.308788 0.61437 0)
(-0.326599 0.525391 0)
(-0.335977 0.418855 0)
(-0.341983 0.299805 0)
(-0.348649 0.170387 0)
(-0.358609 0.0311005 0)
(-0.37274 -0.118103 0)
(-0.389641 -0.27657 0)
(-0.404942 -0.441152 0)
(-0.410695 -0.603434 0)
(-0.395432 -0.745769 0)
(-0.34579 -0.836699 0)
(-0.252502 -0.828197 0)
(-0.12898 -0.660828 0)
(-0.0315169 -0.28737 0)
(-0.0260578 0.262524 0)
(-0.0961532 0.577721 0)
(-0.176122 0.71979 0)
(-0.229581 0.746548 0)
(-0.251313 0.704923 0)
(-0.249662 0.625338 0)
(-0.234327 0.525542 0)
(-0.213939 0.414804 0)
(-0.195569 0.297059 0)
(-0.184617 0.173019 0)
(-0.184863 0.0415164 0)
(-0.198381 -0.0995704 0)
(-0.225081 -0.252363 0)
(-0.261767 -0.417436 0)
(-0.300763 -0.590932 0)
(-0.328478 -0.759379 0)
(-0.324924 -0.891739 0)
(-0.268236 -0.930307 0)
(-0.156773 -0.787716 0)
(-0.0440847 -0.36785 0)
(-0.0403147 0.327929 0)
(-0.126365 0.665152 0)
(-0.194513 0.778625 0)
(-0.211716 0.767394 0)
(-0.186085 0.695199 0)
(-0.136062 0.596791 0)
(-0.0767096 0.489331 0)
(-0.0191256 0.379998 0)
(0.0286697 0.270558 0)
(0.0609281 0.159881 0)
(0.0734949 0.0451766 0)
(0.0634737 -0.0774438 0)
(0.0294187 -0.212556 0)
(-0.0277579 -0.364597 0)
(-0.102879 -0.535626 0)
(-0.183418 -0.719961 0)
(-0.245669 -0.893371 0)
(-0.254546 -0.995841 0)
(-0.182904 -0.912389 0)
(-0.0611258 -0.470855 0)
(-0.0616707 0.424705 0)
(-0.161457 0.752299 0)
(-0.188579 0.800259 0)
(-0.136853 0.733284 0)
(-0.0401166 0.627541 0)
(0.0722047 0.515238 0)
(0.182086 0.408394 0)
(0.278697 0.309608 0)
(0.355437 0.21744 0)
(0.408042 0.128799 0)
(0.433312 0.0397296 0)
(0.428398 -0.0545458 0)
(0.390612 -0.159891 0)
(0.317921 -0.283457 0)
(0.210673 -0.432968 0)
(0.0755918 -0.612994 0)
(-0.0670943 -0.81397 0)
(-0.175547 -0.988618 0)
(-0.189044 -1.00954 0)
(-0.0780741 -0.603322 0)
(-0.0786735 0.569474 0)
(-0.166938 0.807136 0)
(-0.0878341 0.736922 0)
(0.0791788 0.607161 0)
(0.265616 0.480614 0)
(0.441397 0.371672 0)
(0.594132 0.281405 0)
(0.718648 0.206165 0)
(0.81315 0.141324 0)
(0.876983 0.0825319 0)
(0.909314 0.0257105 0)
(0.90841 -0.0334364 0)
(0.871193 -0.100166 0)
(0.793049 -0.181742 0)
(0.66842 -0.28854 0)
(0.493669 -0.433876 0)
(0.273935 -0.628127 0)
(0.0380045 -0.85778 0)
(-0.124555 -1.02332 0)
(-0.0702364 -0.759388 0)
(0.00160447 0.697871 0)
(0.0124231 0.729795 0)
(0.296247 0.530176 0)
(0.604833 0.373204 0)
(0.859878 0.263938 0)
(1.06229 0.187044 0)
(1.22008 0.132189 0)
(1.3393 0.0916909 0)
(1.42497 0.0599951 0)
(1.48067 0.033258 0)
(1.50821 0.00864078 0)
(1.50749 -0.0163815 0)
(1.47613 -0.0447951 0)
(1.4088 -0.081067 0)
(1.29618 -0.132979 0)
(1.12421 -0.214564 0)
(0.872907 -0.3491 0)
(0.523722 -0.564565 0)
(0.155494 -0.838518 0)
(0.0715707 -0.818164 0)
(0.761326 0.37261 0)
(0.992228 0.328224 0)
(1.39349 0.201865 0)
(1.69634 0.121148 0)
(1.8837 0.0743159 0)
(2.00544 0.0463351 0)
(2.08879 0.0292017 0)
(2.14594 0.0182722 0)
(2.18375 0.0107654 0)
(2.20628 0.00505917 0)
(2.21561 0.000166047 0)
(2.21229 -0.00462755 0)
(2.1954 -0.0101052 0)
(2.16205 -0.0174641 0)
(2.10595 -0.0291004 0)
(2.01435 -0.050288 0)
(1.85782 -0.0926366 0)
(1.5678 -0.179003 0)
(1.1218 -0.329653 0)
(0.823196 -0.394469 0)
)
;

boundaryField
{
    movingWall
    {
        type            fixedValue;
        value           uniform (2.6 0 0);
    }
    fixedWalls
    {
        type            noSlip;
    }
    frontAndBack
    {
        type            empty;
    }
}


// ************************************************************************* //
