/*--------------------------------*- C++ -*----------------------------------*\
  =========                 |
  \\      /  F ield         | OpenFOAM: The Open Source CFD Toolbox
   \\    /   O peration     | Website:  https://openfoam.org
    \\  /    A nd           | Version:  8
     \\/     M anipulation  |
\*---------------------------------------------------------------------------*/
FoamFile
{
    version     2.0;
    format      ascii;
    class       surfaceScalarField;
    location    "0.1";
    object      phi;
}
// * * * * * * * * * * * * * * * * * * * * * * * * * * * * * * * * * * * * * //

dimensions      [0 3 -1 0 0 0 0];

internalField   nonuniform List<scalar> 
760
(
2.68396e-08
-2.684e-08
-4.647e-08
7.33105e-08
-2.27824e-07
1.81352e-07
-4.84039e-07
2.56214e-07
-7.76983e-07
2.9294e-07
-1.07134e-06
2.94361e-07
-1.33691e-06
2.65564e-07
-1.5491e-06
2.12196e-07
-1.68899e-06
1.3989e-07
-1.74344e-06
5.44469e-08
-1.70574e-06
-3.77035e-08
-1.57663e-06
-1.29103e-07
-1.36549e-06
-2.11142e-07
-1.09114e-06
-2.74355e-07
-7.81948e-07
-3.0919e-07
-4.74602e-07
-3.07346e-07
-2.10873e-07
-2.6373e-07
-3.1961e-08
-1.78912e-07
3.25501e-08
-6.45109e-08
3.25497e-08
-7.00681e-08
4.3231e-08
-3.60539e-07
3.63779e-07
-8.59214e-07
6.80032e-07
-1.50515e-06
9.02149e-07
-2.22216e-06
1.00995e-06
-2.93417e-06
1.00638e-06
-3.57268e-06
9.04072e-07
-4.08024e-06
7.19751e-07
-4.41222e-06
4.71877e-07
-4.53825e-06
1.80475e-07
-4.44386e-06
-1.32094e-07
-4.13254e-06
-4.40419e-07
-3.62766e-06
-7.16028e-07
-2.97342e-06
-9.28589e-07
-2.23401e-06
-1.0486e-06
-1.48956e-06
-1.0518e-06
-8.27946e-07
-9.25341e-07
-3.31471e-07
-6.75385e-07
-5.68323e-08
-3.39149e-07
-2.42838e-08
-1.85225e-07
2.28455e-07
-7.0978e-07
8.8833e-07
-1.51066e-06
1.48091e-06
-2.49608e-06
1.88756e-06
-3.56203e-06
2.0759e-06
-4.60574e-06
2.05009e-06
-5.53402e-06
1.83235e-06
-6.26812e-06
1.45385e-06
-6.74669e-06
9.50443e-07
-6.92804e-06
3.61823e-07
-6.79257e-06
-2.67568e-07
-6.34532e-06
-8.87663e-07
-5.6183e-06
-1.44305e-06
-4.67153e-06
-1.87536e-06
-3.59165e-06
-2.12848e-06
-2.48669e-06
-2.15676e-06
-1.47565e-06
-1.93638e-06
-6.72704e-07
-1.47833e-06
-1.66711e-07
-8.45142e-07
-1.90994e-07
-2.90563e-07
5.1902e-07
-1.04243e-06
1.6402e-06
-2.13414e-06
2.57262e-06
-3.43571e-06
3.18913e-06
-4.81556e-06
3.45575e-06
-6.14932e-06
3.38385e-06
-7.32628e-06
3.00931e-06
-8.25354e-06
2.38112e-06
-8.85877e-06
1.55567e-06
-9.0925e-06
5.95554e-07
-8.93076e-06
-4.29316e-07
-8.37795e-06
-1.44047e-06
-7.46977e-06
-2.35122e-06
-6.27499e-06
-3.07014e-06
-4.89485e-06
-3.50862e-06
-3.45838e-06
-3.59324e-06
-2.11226e-06
-3.2825e-06
-1.00515e-06
-2.58544e-06
-2.68412e-07
-1.58188e-06
-4.59405e-07
-3.86465e-07
9.05485e-07
-1.35573e-06
2.60946e-06
-2.72822e-06
3.94511e-06
-4.33217e-06
4.79308e-06
-6.00724e-06
5.13082e-06
-7.60942e-06
4.98604e-06
-9.01447e-06
4.41436e-06
-1.01198e-05
3.48646e-06
-1.08458e-05
2.28169e-06
-1.11373e-05
8.8705e-07
-1.09657e-05
-6.00946e-07
-1.03321e-05
-2.07406e-06
-9.27128e-06
-3.41205e-06
-7.85496e-06
-4.48646e-06
-6.19359e-06
-5.16999e-06
-4.43398e-06
-5.35284e-06
-2.75127e-06
-4.96522e-06
-1.33405e-06
-4.00266e-06
-3.64696e-07
-2.55123e-06
-8.241e-07
-4.77165e-07
1.38265e-06
-1.65685e-06
3.78915e-06
-3.30264e-06
5.5909e-06
-5.19928e-06
6.68972e-06
-7.15703e-06
7.08857e-06
-9.01364e-06
6.84265e-06
-1.06343e-05
6.03505e-06
-1.19104e-05
4.76255e-06
-1.2758e-05
3.12932e-06
-1.31177e-05
1.24675e-06
-1.29557e-05
-7.62992e-07
-1.22669e-05
-2.76282e-06
-1.10804e-05
-4.5986e-06
-9.46495e-06
-6.1019e-06
-7.53491e-06
-7.10003e-06
-5.45209e-06
-7.43566e-06
-3.42146e-06
-6.99585e-06
-1.67783e-06
-5.74629e-06
-4.63558e-07
-3.7655e-06
-1.28766e-06
-5.66672e-07
1.94932e-06
-1.95405e-06
5.17653e-06
-3.86768e-06
7.50452e-06
-6.04731e-06
8.86935e-06
-8.27385e-06
9.31511e-06
-1.0369e-05
8.93782e-06
-1.21911e-05
7.85716e-06
-1.36295e-05
6.20096e-06
-1.45996e-05
4.0994e-06
-1.50396e-05
1.68674e-06
-1.49102e-05
-8.92419e-07
-1.41973e-05
-3.47566e-06
-1.29188e-05
-5.87709e-06
-1.11337e-05
-7.88708e-06
-8.95278e-06
-9.28093e-06
-6.54799e-06
-9.84044e-06
-4.15395e-06
-9.3899e-06
-2.05784e-06
-7.8424e-06
-5.73679e-07
-5.24966e-06
-1.86134e-06
-6.58375e-07
2.60769e-06
-2.25442e-06
6.77258e-06
-4.43048e-06
9.68058e-06
-6.87872e-06
1.13176e-05
-9.35159e-06
1.1788e-05
-1.16586e-05
1.12448e-05
-1.36565e-05
9.85515e-06
-1.52389e-05
7.78326e-06
-1.63252e-05
5.18576e-06
-1.68549e-05
2.21643e-06
-1.67838e-05
-9.63485e-07
-1.60865e-05
-4.17295e-06
-1.47637e-05
-7.19996e-06
-1.28552e-05
-9.79553e-06
-1.04582e-05
-1.1678e-05
-7.74494e-06
-1.25537e-05
-4.97567e-06
-1.21592e-05
-2.49491e-06
-1.03232e-05
-7.03703e-07
-7.04086e-06
-2.56504e-06
-7.55487e-07
3.36318e-06
-2.56416e-06
8.58125e-06
-4.99454e-06
1.2111e-05
-7.68673e-06
1.40098e-05
-1.03667e-05
1.4468e-05
-1.28381e-05
1.37162e-05
-1.49649e-05
1.19819e-05
-1.6653e-05
9.47138e-06
-1.78342e-05
6.36698e-06
-1.84545e-05
2.83667e-06
-1.84675e-05
-9.50464e-07
-1.7835e-05
-4.8054e-06
-1.65346e-05
-8.50035e-06
-1.45762e-05
-1.1754e-05
-1.20276e-05
-1.42266e-05
-9.04553e-06
-1.55357e-05
-5.90457e-06
-1.53001e-05
-3.00784e-06
-1.32199e-05
-8.62391e-07
-9.18632e-06
-3.42743e-06
-8.62406e-07
4.22559e-06
-2.89089e-06
1.06097e-05
-5.56141e-06
1.47815e-05
-8.45533e-06
1.69037e-05
-1.12764e-05
1.7289e-05
-1.38327e-05
1.62725e-05
-1.6008e-05
1.41573e-05
-1.77333e-05
1.11967e-05
-1.89631e-05
7.59684e-06
-1.96585e-05
3.53207e-06
-1.97763e-05
-8.32657e-07
-1.92664e-05
-5.3153e-06
-1.80782e-05
-9.68855e-06
-1.61792e-05
-1.3653e-05
-1.3588e-05
-1.68179e-05
-1.04209e-05
-1.87028e-05
-6.94438e-06
-1.87767e-05
-3.61277e-06
-1.65515e-05
-1.05948e-06
-1.17396e-05
-4.48691e-06
-9.87135e-07
5.21272e-06
-3.24752e-06
1.28701e-05
-6.13339e-06
1.76673e-05
-9.15905e-06
1.99294e-05
-1.2015e-05
2.0145e-05
-1.45308e-05
1.87883e-05
-1.66282e-05
1.62546e-05
-1.82798e-05
1.28482e-05
-1.94769e-05
8.79393e-06
-2.02067e-05
4.26195e-06
-2.04376e-05
-6.01766e-07
-2.01118e-05
-5.64114e-06
-1.91485e-05
-1.06518e-05
-1.74616e-05
-1.53399e-05
-1.49969e-05
-1.92825e-05
-1.17954e-05
-2.19043e-05
-8.07668e-06
-2.24954e-05
-4.32221e-06
-2.0306e-05
-1.30723e-06
-1.47546e-05
-5.79414e-06
-1.14532e-06
6.35804e-06
-3.65757e-06
1.53824e-05
-6.71508e-06
2.07249e-05
-9.75885e-06
2.29731e-05
-1.24856e-05
2.28717e-05
-1.47732e-05
2.10759e-05
-1.66068e-05
1.80882e-05
-1.80209e-05
1.42623e-05
-1.90597e-05
9.83268e-06
-1.97494e-05
4.95165e-06
-2.00803e-05
-2.70816e-07
-1.99956e-05
-5.72588e-06
-1.93878e-05
-1.12596e-05
-1.81107e-05
-1.6617e-05
-1.6015e-05
-2.13782e-05
-1.30227e-05
-2.48965e-05
-9.24689e-06
-2.62712e-05
-5.1424e-06
-2.44104e-05
-1.62291e-06
-1.82741e-05
-7.41705e-06
-1.36683e-06
7.72487e-06
-4.16015e-06
1.81757e-05
-7.30872e-06
2.38734e-05
-1.01866e-05
2.5851e-05
-1.25371e-05
2.52222e-05
-1.43291e-05
2.28679e-05
-1.56433e-05
1.94025e-05
-1.65986e-05
1.52176e-05
-1.73061e-05
1.05402e-05
-1.78424e-05
5.48795e-06
-1.8231e-05
1.17797e-07
-1.84281e-05
-5.52882e-06
-1.83111e-05
-1.13765e-05
-1.76784e-05
-1.72498e-05
-1.6272e-05
-2.27846e-05
-1.38505e-05
-2.7318e-05
-1.03388e-05
-2.9783e-05
-6.06553e-06
-2.86837e-05
-2.03264e-06
-2.2307e-05
-9.44969e-06
-1.7057e-06
9.43057e-06
-4.80946e-06
2.12794e-05
-7.89039e-06
2.69544e-05
-1.03024e-05
2.82631e-05
-1.19145e-05
2.68343e-05
-1.28487e-05
2.3802e-05
-1.33188e-05
1.98726e-05
-1.35446e-05
1.54434e-05
-1.37109e-05
1.07065e-05
-1.39481e-05
5.7252e-06
-1.43202e-05
4.89886e-07
-1.481e-05
-5.03899e-06
-1.53012e-05
-1.08854e-05
-1.55586e-05
-1.69924e-05
-1.52248e-05
-2.31183e-05
-1.38664e-05
-2.86764e-05
-1.11265e-05
-3.25228e-05
-7.04832e-06
-3.27619e-05
-2.575e-06
-2.67803e-05
-1.20247e-05
-2.25038e-06
1.1681e-05
-5.64898e-06
2.4678e-05
-8.33535e-06
2.96407e-05
-9.7918e-06
2.97195e-05
-1.0154e-05
2.71965e-05
-9.77604e-06
2.34241e-05
-9.03311e-06
1.91296e-05
-8.24529e-06
1.46556e-05
-7.65832e-06
1.01195e-05
-7.44424e-06
5.51112e-06
-7.70354e-06
7.49186e-07
-8.45683e-06
-4.2857e-06
-9.62215e-06
-9.72009e-06
-1.09763e-05
-1.56383e-05
-1.21102e-05
-2.19844e-05
-1.24152e-05
-2.83715e-05
-1.1182e-05
-3.3756e-05
-7.95226e-06
-3.59916e-05
-3.29482e-06
-3.14377e-05
-1.53195e-05
-3.10929e-06
1.47902e-05
-6.59601e-06
2.81648e-05
-8.21725e-06
3.1262e-05
-7.94415e-06
2.94464e-05
-6.3903e-06
2.56426e-05
-4.20628e-06
2.124e-05
-1.91647e-06
1.68398e-05
1.00172e-07
1.2639e-05
1.58267e-06
8.637e-06
2.35295e-06
4.74085e-06
2.29475e-06
8.07379e-07
1.34924e-06
-3.34019e-06
-4.65354e-07
-7.90549e-06
-3.00266e-06
-1.3101e-05
-5.90133e-06
-1.90857e-05
-8.48033e-06
-2.57925e-05
-9.69873e-06
-3.25376e-05
-8.38451e-06
-3.73058e-05
-4.18749e-06
-3.56348e-05
-1.9507e-05
-4.28794e-06
1.90782e-05
-7.06118e-06
3.0938e-05
-6.32414e-06
3.05249e-05
-3.2234e-06
2.63457e-05
9.52013e-07
2.14672e-05
5.3006e-06
1.68915e-05
9.26064e-06
1.28798e-05
1.25031e-05
9.39648e-06
1.48358e-05
6.30432e-06
1.61359e-05
3.44079e-06
1.6309e-05
6.34198e-07
1.52732e-05
-2.30436e-06
1.29659e-05
-5.5982e-06
9.38919e-06
-9.52429e-06
4.71491e-06
-1.44114e-05
-5.24276e-07
-2.05533e-05
-5.17925e-06
-2.78827e-05
-7.33407e-06
-3.5151e-05
-5.00531e-06
-3.79635e-05
-2.45123e-05
-5.22315e-06
2.43013e-05
-4.87765e-06
3.05925e-05
3.86008e-07
2.52612e-05
7.45026e-06
1.92814e-05
1.45424e-05
1.4375e-05
2.08626e-05
1.05713e-05
2.60862e-05
7.65617e-06
3.01096e-05
5.37315e-06
3.29141e-05
3.49977e-06
3.44941e-05
1.86082e-06
3.4818e-05
3.10324e-07
3.38091e-05
-1.29546e-06
3.13357e-05
-3.12484e-06
2.72251e-05
-5.41372e-06
2.13297e-05
-8.516e-06
1.37183e-05
-1.29418e-05
5.10446e-06
-1.92689e-05
-2.40088e-06
-2.76457e-05
-4.76108e-06
-3.56033e-05
-2.92734e-05
-2.15838e-06
2.64597e-05
6.8672e-06
2.15669e-05
1.87759e-05
1.33526e-05
2.95121e-05
8.54517e-06
3.8247e-05
5.64017e-06
4.50459e-05
3.77238e-06
5.01662e-05
2.53588e-06
5.38618e-05
1.67751e-06
5.63256e-05
1.03597e-06
5.76757e-05
5.10749e-07
5.7951e-05
3.49825e-08
5.71085e-05
-4.52948e-07
5.49998e-05
-1.01608e-06
5.13452e-05
-1.75919e-06
4.56982e-05
-2.869e-06
3.74636e-05
-4.70718e-06
2.61613e-05
-7.96659e-06
1.23891e-05
-1.38735e-05
4.46387e-07
-2.36606e-05
-2.8827e-05
2.64597e-05
4.80266e-05
6.13793e-05
6.99244e-05
7.55646e-05
7.9337e-05
8.18729e-05
8.35504e-05
8.45863e-05
8.50971e-05
8.51321e-05
8.46791e-05
8.3663e-05
8.19038e-05
7.90348e-05
7.43277e-05
6.63611e-05
5.24876e-05
2.8827e-05
)
;

boundaryField
{
    movingWall
    {
        type            calculated;
        value           uniform 0;
    }
    fixedWalls
    {
        type            calculated;
        value           uniform 0;
    }
    frontAndBack
    {
        type            empty;
        value           nonuniform List<scalar> 0();
    }
}


// ************************************************************************* //
