/*--------------------------------*- C++ -*----------------------------------*\
  =========                 |
  \\      /  F ield         | OpenFOAM: The Open Source CFD Toolbox
   \\    /   O peration     | Website:  https://openfoam.org
    \\  /    A nd           | Version:  8
     \\/     M anipulation  |
\*---------------------------------------------------------------------------*/
FoamFile
{
    version     2.0;
    format      ascii;
    class       volScalarField;
    location    "0.4";
    object      p;
}
// * * * * * * * * * * * * * * * * * * * * * * * * * * * * * * * * * * * * * //

dimensions      [0 2 -2 0 0 0 0];

internalField   nonuniform List<scalar> 
400
(
1.92502e-05
-0.0257355
-0.0562092
-0.0790786
-0.0878475
-0.0797805
-0.0545065
-0.0131788
0.0418698
0.107134
0.177869
0.248171
0.311374
0.360827
0.391034
0.398984
0.385449
0.355957
0.321093
0.295825
0.0256394
-0.00105662
-0.0248543
-0.0403827
-0.0450631
-0.0370584
-0.0159246
0.0176395
0.0619941
0.114514
0.171518
0.22835
0.279713
0.320328
0.345865
0.354004
0.345413
0.324154
0.296569
0.270919
0.0579051
0.0210691
-0.00436605
-0.0182825
-0.0220671
-0.0150226
0.00303138
0.031567
0.0694348
0.11468
0.16436
0.214527
0.260485
0.297368
0.320989
0.328837
0.321055
0.300533
0.270213
0.234224
0.0847109
0.0344095
0.0033024
-0.0122865
-0.0171905
-0.0117483
0.00390295
0.0293158
0.0637329
0.105736
0.152894
0.201611
0.247272
0.284754
0.309281
0.317504
0.308688
0.284762
0.246207
0.19512
0.097328
0.0335212
-0.00417122
-0.0225127
-0.0293173
-0.0257575
-0.0121753
0.0111295
0.0438251
0.0850254
0.132759
0.183644
0.232897
0.274765
0.303386
0.314039
0.304712
0.276314
0.227301
0.158833
0.0888914
0.0123908
-0.0318701
-0.0533028
-0.0623142
-0.0607136
-0.0488977
-0.0268941
0.00549079
0.047984
0.0991234
0.155736
0.212751
0.2635
0.300559
0.317217
0.309591
0.27722
0.216524
0.12838
0.0535748
-0.0345727
-0.0849827
-0.109456
-0.120722
-0.121084
-0.110852
-0.0896311
-0.0565415
-0.0110659
0.0460267
0.111919
0.181294
0.246392
0.297758
0.325916
0.324214
0.290031
0.217123
0.106278
-0.0138837
-0.112566
-0.168455
-0.195623
-0.209
-0.211324
-0.202717
-0.182204
-0.148001
-0.0985155
-0.0334813
0.044996
0.131615
0.217543
0.290889
0.338501
0.349651
0.318138
0.233525
0.0961613
-0.118386
-0.226553
-0.287042
-0.316225
-0.331301
-0.335515
-0.328768
-0.30936
-0.274349
-0.220686
-0.14656
-0.0527731
0.0559561
0.170055
0.275005
0.353012
0.387549
0.366549
0.272593
0.104401
-0.264545
-0.381357
-0.445215
-0.475077
-0.490821
-0.496465
-0.491757
-0.474168
-0.439328
-0.382281
-0.299022
-0.188217
-0.0530741
0.0968886
0.244787
0.367443
0.440492
0.442708
0.345077
0.14203
-0.456904
-0.581908
-0.647097
-0.67489
-0.688893
-0.694451
-0.69135
-0.676173
-0.642852
-0.584043
-0.49282
-0.364702
-0.200106
-0.00711979
0.196031
0.3807
0.512776
0.557605
0.467556
0.227461
-0.700721
-0.833933
-0.896549
-0.916694
-0.923886
-0.925727
-0.922311
-0.90927
-0.878547
-0.819923
-0.722832
-0.578588
-0.38332
-0.141746
0.128594
0.394801
0.61203
0.727489
0.665196
0.390696
-1.00412
-1.14547
-1.19749
-1.19917
-1.18996
-1.18097
-1.17277
-1.1598
-1.13158
-1.07453
-0.973785
-0.815541
-0.590184
-0.296808
0.050786
0.41855
0.752062
0.976548
0.975825
0.680314
-1.38333
-1.52981
-1.55433
-1.51768
-1.47567
-1.44394
-1.42308
-1.40559
-1.37782
-1.32215
-1.21891
-1.04853
-0.794547
-0.448343
-0.0162688
0.471736
0.956432
1.34047
1.45605
1.17569
-1.87462
-2.0106
-1.97168
-1.86227
-1.76212
-1.69039
-1.64566
-1.61668
-1.58523
-1.52872
-1.42215
-1.23988
-0.958071
-0.558906
-0.0376799
0.5868
1.26009
1.86867
2.18823
2.00609
-2.55884
-2.62926
-2.45237
-2.21441
-2.02101
-1.88791
-1.80659
-1.75852
-1.71857
-1.65782
-1.54542
-1.34956
-1.03883
-0.585601
0.0288415
0.804566
1.70625
2.62123
3.2818
3.36976
-3.61246
-3.45312
-2.99509
-2.54713
-2.21698
-2.00017
-1.87176
-1.79988
-1.74888
-1.68195
-1.56184
-1.35081
-1.0092
-0.499469
0.214124
1.15864
2.33477
3.65914
4.87256
5.56409
-5.47743
-4.57325
-3.564
-2.80611
-2.2983
-1.98451
-1.80991
-1.71992
-1.66394
-1.59609
-1.47298
-1.25116
-0.885064
-0.324418
0.487392
1.61517
3.11771
4.99264
7.14981
9.20105
-9.41009
-6.02023
-3.86529
-2.73275
-2.08308
-1.7205
-1.54703
-1.47959
-1.45182
-1.41138
-1.31219
-1.10858
-0.752352
-0.183974
0.673739
1.93285
3.75049
6.34241
10.236
15.6632
-16.926
-7.40656
-3.26994
-1.91155
-1.33565
-1.08052
-1.01976
-1.05644
-1.11914
-1.15774
-1.13063
-0.996846
-0.710764
-0.21618
0.566667
1.77503
3.68239
6.91171
13.2915
25.07
)
;

boundaryField
{
    movingWall
    {
        type            zeroGradient;
    }
    fixedWalls
    {
        type            zeroGradient;
    }
    frontAndBack
    {
        type            empty;
    }
}


// ************************************************************************* //
