/*--------------------------------*- C++ -*----------------------------------*\
  =========                 |
  \\      /  F ield         | OpenFOAM: The Open Source CFD Toolbox
   \\    /   O peration     | Website:  https://openfoam.org
    \\  /    A nd           | Version:  8
     \\/     M anipulation  |
\*---------------------------------------------------------------------------*/
FoamFile
{
    version     2.0;
    format      ascii;
    class       surfaceScalarField;
    location    "0.4";
    object      phi;
}
// * * * * * * * * * * * * * * * * * * * * * * * * * * * * * * * * * * * * * //

dimensions      [0 3 -1 0 0 0 0];

internalField   nonuniform List<scalar> 
760
(
5.61977e-08
-5.63592e-08
-1.13989e-07
1.70187e-07
-5.19262e-07
4.05272e-07
-1.08324e-06
5.63971e-07
-1.72448e-06
6.41243e-07
-2.37099e-06
6.46508e-07
-2.96152e-06
5.90533e-07
-3.44404e-06
4.82518e-07
-3.77442e-06
3.3038e-07
-3.91736e-06
1.42935e-07
-3.84979e-06
-6.75686e-08
-3.56614e-06
-2.83647e-07
-3.08384e-06
-4.82303e-07
-2.44722e-06
-6.36619e-07
-1.72776e-06
-7.19458e-07
-1.0188e-06
-7.08962e-07
-4.23614e-07
-5.95185e-07
-3.69636e-08
-3.86654e-07
8.47439e-08
-1.21715e-07
8.47386e-08
-1.67485e-07
1.11126e-07
-8.31122e-07
8.33823e-07
-1.94867e-06
1.52282e-06
-3.38039e-06
1.9957e-06
-4.96319e-06
2.22404e-06
-6.53912e-06
2.22244e-06
-7.96571e-06
2.01712e-06
-9.11897e-06
1.63578e-06
-9.89527e-06
1.10668e-06
-1.02156e-05
4.63249e-07
-1.0033e-05
-2.50117e-07
-9.34264e-06
-9.74046e-07
-8.19077e-06
-1.63418e-06
-6.68071e-06
-2.14668e-06
-4.9706e-06
-2.42958e-06
-3.26015e-06
-2.41941e-06
-1.76406e-06
-2.09127e-06
-6.72351e-07
-1.47835e-06
-9.86057e-08
-6.95449e-07
-1.38723e-08
-4.33592e-07
5.44717e-07
-1.62859e-06
2.02882e-06
-3.42413e-06
3.31837e-06
-5.61246e-06
4.18402e-06
-7.97181e-06
4.58338e-06
-1.02884e-05
4.53904e-06
-1.23673e-05
4.09602e-06
-1.40375e-05
3.306e-06
-1.51565e-05
2.22562e-06
-1.56166e-05
9.23363e-07
-1.53553e-05
-5.114e-07
-1.4367e-05
-1.9623e-06
-1.27146e-05
-3.2866e-06
-1.05361e-05
-4.32521e-06
-8.04236e-06
-4.9233e-06
-5.50117e-06
-4.96061e-06
-3.20433e-06
-4.38811e-06
-1.41974e-06
-3.26295e-06
-3.33989e-07
-1.78119e-06
-3.47863e-07
-6.76586e-07
1.2213e-06
-2.3831e-06
3.73532e-06
-4.82317e-06
5.75844e-06
-7.70716e-06
7.06801e-06
-1.07577e-05
7.63398e-06
-1.37186e-05
7.49988e-06
-1.63592e-05
6.73663e-06
-1.8478e-05
5.42476e-06
-1.99061e-05
3.65378e-06
-2.05149e-05
1.53214e-06
-2.02263e-05
-7.99958e-07
-1.90269e-05
-3.16176e-06
-1.69812e-05
-5.33225e-06
-1.42427e-05
-7.06377e-06
-1.10546e-05
-8.11139e-06
-7.73713e-06
-8.27805e-06
-4.65478e-06
-7.47046e-06
-2.16479e-06
-5.75294e-06
-5.56152e-07
-3.38982e-06
-9.04015e-07
-8.93676e-07
2.11498e-06
-3.07622e-06
5.91787e-06
-6.12068e-06
8.80289e-06
-9.65198e-06
1.05993e-05
-1.33386e-05
1.13206e-05
-1.6889e-05
1.10503e-05
-2.00478e-05
9.89538e-06
-2.25933e-05
7.97021e-06
-2.43383e-05
5.39883e-06
-2.51357e-05
2.32957e-06
-2.48886e-05
-1.04713e-06
-2.35649e-05
-4.48544e-06
-2.12155e-05
-7.68163e-06
-1.79908e-05
-1.02885e-05
-1.41507e-05
-1.19514e-05
-1.00608e-05
-1.23679e-05
-6.16429e-06
-1.1367e-05
-2.92837e-06
-8.98886e-06
-7.72666e-07
-5.54553e-06
-1.67668e-06
-1.08916e-06
3.20414e-06
-3.70952e-06
8.53823e-06
-7.3141e-06
1.24075e-05
-1.14455e-05
1.47307e-05
-1.57215e-05
1.55967e-05
-1.98219e-05
1.51506e-05
-2.34746e-05
1.35481e-05
-2.64465e-05
1.09421e-05
-2.85378e-05
7.49016e-06
-2.95842e-05
3.37595e-06
-2.94647e-05
-1.16662e-06
-2.81176e-05
-5.83255e-06
-2.55625e-05
-1.02368e-05
-2.19266e-05
-1.39244e-05
-1.74689e-05
-1.6409e-05
-1.25916e-05
-1.72453e-05
-7.82367e-06
-1.6135e-05
-3.7671e-06
-1.30454e-05
-1.00629e-06
-8.30635e-06
-2.68297e-06
-1.26644e-06
4.47059e-06
-4.28612e-06
1.15579e-05
-8.40163e-06
1.6523e-05
-1.30787e-05
1.94078e-05
-1.78905e-05
2.04085e-05
-2.24954e-05
1.97555e-05
-2.66142e-05
1.76669e-05
-3.00109e-05
1.43387e-05
-3.24802e-05
9.95948e-06
-3.38431e-05
4.73887e-06
-3.39515e-05
-1.05827e-06
-3.27029e-05
-7.08112e-06
-3.00675e-05
-1.28721e-05
-2.61253e-05
-1.78667e-05
-2.11088e-05
-2.14255e-05
-1.54392e-05
-2.29149e-05
-9.73153e-06
-2.18426e-05
-4.74777e-06
-1.80292e-05
-1.28309e-06
-1.1771e-05
-3.96606e-06
-1.42747e-06
5.89806e-06
-4.8071e-06
1.49375e-05
-9.3765e-06
2.10924e-05
-1.45296e-05
2.45608e-05
-1.98018e-05
2.56808e-05
-2.48406e-05
2.47943e-05
-2.93709e-05
2.21972e-05
-3.31659e-05
1.81337e-05
-3.6025e-05
1.28186e-05
-3.77616e-05
6.47546e-06
-3.82014e-05
-6.18484e-07
-3.71945e-05
-8.08804e-06
-3.4644e-05
-1.54226e-05
-3.05542e-05
-2.19565e-05
-2.50954e-05
-2.68843e-05
-1.86732e-05
-2.93371e-05
-1.19732e-05
-2.85426e-05
-5.93697e-06
-2.40655e-05
-1.63023e-06
-1.60778e-05
-5.59629e-06
-1.57418e-06
7.47224e-06
-5.27383e-06
1.86372e-05
-1.02295e-05
2.6048e-05
-1.5765e-05
3.00964e-05
-2.13868e-05
3.13026e-05
-2.67438e-05
3.01513e-05
-3.15809e-05
2.70343e-05
-3.56967e-05
2.22495e-05
-3.89112e-05
1.60331e-05
-4.10438e-05
8.60802e-06
-4.19029e-05
2.40648e-07
-4.12917e-05
-8.69926e-06
-3.90338e-05
-1.76804e-05
-3.50281e-05
-2.59622e-05
-2.9335e-05
-3.25775e-05
-2.22883e-05
-3.63837e-05
-1.46005e-05
-3.62304e-05
-7.39424e-06
-3.12717e-05
-2.07597e-06
-2.1396e-05
-7.67225e-06
-1.71211e-06
9.18434e-06
-5.69555e-06
2.26206e-05
-1.09582e-05
3.13107e-05
-1.67508e-05
3.58889e-05
-2.256e-05
3.71118e-05
-2.8054e-05
3.56453e-05
-3.3018e-05
3.19983e-05
-3.72983e-05
2.65298e-05
-4.07577e-05
1.94925e-05
-4.32431e-05
1.10934e-05
-4.45651e-05
1.56268e-06
-4.44921e-05
-8.77221e-06
-4.2767e-05
-1.94056e-05
-3.91586e-05
-2.95707e-05
-3.35629e-05
-3.81731e-05
-2.61607e-05
-4.3786e-05
-1.76059e-05
-4.47852e-05
-9.16494e-06
-3.97127e-05
-2.65098e-06
-2.791e-05
-1.03232e-05
-1.85652e-06
1.10409e-05
-6.1018e-06
2.68659e-05
-1.15818e-05
3.67907e-05
-1.74643e-05
4.17714e-05
-2.32308e-05
4.28783e-05
-2.85932e-05
4.10078e-05
-3.34049e-05
3.681e-05
-3.75874e-05
3.07122e-05
-4.10745e-05
2.29796e-05
-4.37705e-05
1.37895e-05
-4.55185e-05
3.31063e-06
-4.60796e-05
-8.2111e-06
-4.51321e-05
-2.03531e-05
-4.23065e-05
-3.23963e-05
-3.72844e-05
-4.31951e-05
-2.99912e-05
-5.10792e-05
-2.08851e-05
-5.38912e-05
-1.12685e-05
-4.93294e-05
-3.39056e-06
-3.57879e-05
-1.37138e-05
-2.04234e-06
1.30832e-05
-6.55959e-06
3.13832e-05
-1.21569e-05
4.2388e-05
-1.79061e-05
4.75206e-05
-2.33098e-05
4.8282e-05
-2.81617e-05
4.58596e-05
-3.24198e-05
4.10682e-05
-3.61142e-05
3.44067e-05
-3.92818e-05
2.61472e-05
-4.19183e-05
1.6426e-05
-4.39379e-05
5.33025e-06
-4.51377e-05
-7.01134e-06
-4.51713e-05
-2.03194e-05
-4.35512e-05
-3.40164e-05
-3.9718e-05
-4.70284e-05
-3.32373e-05
-5.75599e-05
-2.41821e-05
-6.29464e-05
-1.36762e-05
-5.98352e-05
-4.33732e-06
-4.51268e-05
-1.80511e-05
-2.34016e-06
1.54234e-05
-7.19383e-06
3.62368e-05
-1.27867e-05
4.79809e-05
-1.80927e-05
5.28266e-05
-2.26906e-05
5.28798e-05
-2.65163e-05
4.96854e-05
-2.96814e-05
4.42333e-05
-3.23609e-05
3.70862e-05
-3.47251e-05
2.85114e-05
-3.68924e-05
1.85933e-05
-3.88881e-05
7.32598e-06
-4.05978e-05
-5.30161e-06
-4.17145e-05
-1.92028e-05
-4.1693e-05
-3.40379e-05
-3.97556e-05
-4.89658e-05
-3.50377e-05
-6.22778e-05
-2.70091e-05
-7.0975e-05
-1.62695e-05
-7.05749e-05
-5.54249e-06
-5.58537e-05
-2.35936e-05
-2.88162e-06
1.8305e-05
-8.20315e-06
4.15584e-05
-1.35994e-05
5.33772e-05
-1.79971e-05
5.72242e-05
-2.11673e-05
5.60501e-05
-2.32841e-05
5.18022e-05
-2.46735e-05
4.56226e-05
-2.56895e-05
3.81022e-05
-2.66548e-05
2.94767e-05
-2.7828e-05
1.97665e-05
-2.93727e-05
8.87063e-06
-3.13114e-05
-3.36292e-06
-3.34541e-05
-1.706e-05
-3.53017e-05
-3.21902e-05
-3.59561e-05
-4.83115e-05
-3.41392e-05
-6.40947e-05
-2.85361e-05
-7.6578e-05
-1.87583e-05
-8.03527e-05
-7.05719e-06
-6.75548e-05
-3.06508e-05
-3.89274e-06
2.21977e-05
-9.83786e-06
4.75035e-05
-1.46276e-05
5.81669e-05
-1.73527e-05
5.99493e-05
-1.82048e-05
5.69023e-05
-1.77342e-05
5.13315e-05
-1.65444e-05
4.44328e-05
-1.51848e-05
3.67426e-05
-1.41235e-05
2.84154e-05
-1.37456e-05
1.93887e-05
-1.43497e-05
9.47467e-06
-1.61181e-05
-1.59451e-06
-1.90462e-05
-1.41318e-05
-2.28118e-05
-2.84247e-05
-2.65815e-05
-4.45417e-05
-2.88308e-05
-6.18454e-05
-2.74292e-05
-7.79796e-05
-2.05152e-05
-8.72668e-05
-8.88075e-06
-7.91893e-05
-3.95315e-05
-5.69717e-06
2.78949e-05
-1.22143e-05
5.40206e-05
-1.54098e-05
6.13625e-05
-1.51418e-05
5.96813e-05
-1.24123e-05
5.41728e-05
-8.29918e-06
4.72183e-05
-3.70635e-06
3.984e-05
6.5839e-07
3.23779e-05
4.24155e-06
2.48322e-05
6.592e-06
1.70382e-05
7.32778e-06
8.7389e-06
6.13097e-06
-3.97706e-07
2.79709e-06
-1.0798e-05
-2.64658e-06
-2.2981e-05
-9.67978e-06
-3.75085e-05
-1.68904e-05
-5.46349e-05
-2.16093e-05
-7.32606e-05
-2.02344e-05
-8.86417e-05
-1.07719e-05
-8.86518e-05
-5.03034e-05
-8.53156e-06
3.64264e-05
-1.45563e-05
6.00454e-05
-1.38636e-05
6.06698e-05
-8.4216e-06
5.42393e-05
-5.12094e-07
4.62633e-05
8.24672e-06
3.84595e-05
1.67812e-05
3.13056e-05
2.43808e-05
2.47783e-05
3.05474e-05
1.86656e-05
3.48855e-05
1.27001e-05
3.70328e-05
6.59165e-06
3.66137e-05
2.13281e-08
3.32664e-05
-7.45065e-06
2.6674e-05
-1.63886e-05
1.68142e-05
-2.76487e-05
4.46648e-06
-4.22871e-05
-7.9012e-06
-6.08929e-05
-1.53271e-05
-8.12158e-05
-1.17765e-05
-9.22024e-05
-6.208e-05
-1.165e-05
4.80764e-05
-1.26874e-05
6.10827e-05
-3.47194e-06
5.14544e-05
9.98887e-06
4.07785e-05
2.4281e-05
3.19711e-05
3.7804e-05
2.49366e-05
4.97866e-05
1.93229e-05
5.98444e-05
1.47205e-05
6.77566e-05
1.07534e-05
7.33395e-05
7.11726e-06
7.63727e-05
3.55841e-06
7.65542e-05
-1.60188e-07
7.34563e-05
-4.35273e-06
6.65109e-05
-9.44323e-06
5.50692e-05
-1.6207e-05
3.87639e-05
-2.59819e-05
1.86163e-05
-4.07453e-05
-7.40946e-07
-6.18585e-05
-9.27668e-06
-8.36667e-05
-7.13566e-05
-7.49276e-06
5.55692e-05
9.10918e-06
4.44808e-05
3.26571e-05
2.79065e-05
5.469e-05
1.87456e-05
7.35048e-05
1.31563e-05
8.90581e-05
9.38325e-06
0.000101624
6.7567e-06
0.000111501
4.84386e-06
0.000118911
3.34372e-06
0.000123966
2.06187e-06
0.000126656
8.6878e-07
0.000126838
-3.42743e-07
0.00012417
-1.68459e-06
0.000118055
-3.32829e-06
0.000107469
-5.62064e-06
9.0836e-05
-9.34913e-06
6.64396e-05
-1.63489e-05
3.47321e-05
-3.0151e-05
4.88831e-06
-5.38229e-05
-6.64683e-05
5.55692e-05
0.00010005
0.000127956
0.000146702
0.000159858
0.000169242
0.000175998
0.000180842
0.000184186
0.000186248
0.000187117
0.000186774
0.000185089
0.000181761
0.00017614
0.000166791
0.000150442
0.000120291
6.64683e-05
)
;

boundaryField
{
    movingWall
    {
        type            calculated;
        value           uniform 0;
    }
    fixedWalls
    {
        type            calculated;
        value           uniform 0;
    }
    frontAndBack
    {
        type            empty;
        value           nonuniform List<scalar> 0();
    }
}


// ************************************************************************* //
