/*--------------------------------*- C++ -*----------------------------------*\
  =========                 |
  \\      /  F ield         | OpenFOAM: The Open Source CFD Toolbox
   \\    /   O peration     | Website:  https://openfoam.org
    \\  /    A nd           | Version:  8
     \\/     M anipulation  |
\*---------------------------------------------------------------------------*/
FoamFile
{
    version     2.0;
    format      ascii;
    class       surfaceScalarField;
    location    "0.1";
    object      phi;
}
// * * * * * * * * * * * * * * * * * * * * * * * * * * * * * * * * * * * * * //

dimensions      [0 3 -1 0 0 0 0];

internalField   nonuniform List<scalar> 
760
(
5.26453e-08
-5.26445e-08
-1.07411e-07
1.60056e-07
-4.88595e-07
3.81184e-07
-1.01878e-06
5.30184e-07
-1.62131e-06
6.02532e-07
-2.22837e-06
6.07063e-07
-2.7823e-06
5.53931e-07
-3.23428e-06
4.5198e-07
-3.54322e-06
3.08936e-07
-3.67652e-06
1.33306e-07
-3.61315e-06
-6.33695e-08
-3.34825e-06
-2.64902e-07
-2.8981e-06
-4.50154e-07
-2.30368e-06
-5.94422e-07
-1.63099e-06
-6.72689e-07
-9.66461e-07
-6.64529e-07
-4.0632e-07
-5.60141e-07
-3.98569e-08
-3.66463e-07
7.81124e-08
-1.17969e-07
7.81137e-08
-1.55753e-07
1.03107e-07
-7.76454e-07
7.80757e-07
-1.8238e-06
1.42853e-06
-3.16662e-06
1.873e-06
-4.65148e-06
2.0874e-06
-6.12972e-06
2.0853e-06
-7.46733e-06
1.89155e-06
-8.54811e-06
1.53275e-06
-9.27541e-06
1.03624e-06
-9.576e-06
4.33905e-07
-9.40681e-06
-2.32566e-07
-8.76355e-06
-9.08158e-07
-7.68933e-06
-1.52437e-06
-6.27972e-06
-2.00404e-06
-4.68105e-06
-2.27136e-06
-3.07863e-06
-2.26694e-06
-1.67273e-06
-1.96604e-06
-6.42255e-07
-1.39694e-06
-9.65613e-08
-6.6366e-07
-1.84469e-08
-4.03362e-07
5.0647e-07
-1.51957e-06
1.89696e-06
-3.20027e-06
3.10923e-06
-5.25108e-06
3.9238e-06
-7.46349e-06
4.29981e-06
-9.63623e-06
4.25805e-06
-1.15859e-05
3.84121e-06
-1.31521e-05
3.09897e-06
-1.42017e-05
2.08585e-06
-1.46348e-05
8.66983e-07
-1.43935e-05
-4.7383e-07
-1.34731e-05
-1.82864e-06
-1.19317e-05
-3.06569e-06
-9.89752e-06
-4.03825e-06
-7.56593e-06
-4.60296e-06
-5.18562e-06
-4.64725e-06
-3.0288e-06
-4.12287e-06
-1.34723e-06
-3.07851e-06
-3.19204e-07
-1.69169e-06
-3.37651e-07
-6.30302e-07
1.13677e-06
-2.2252e-06
3.49186e-06
-4.51014e-06
5.39417e-06
-7.21419e-06
6.62785e-06
-1.00764e-05
7.16206e-06
-1.28552e-05
7.03684e-06
-1.53334e-05
6.31942e-06
-1.73217e-05
5.08721e-06
-1.86621e-05
3.42625e-06
-1.92347e-05
1.43965e-06
-1.89675e-05
-7.41068e-07
-1.78482e-05
-2.94795e-06
-1.59373e-05
-4.97661e-06
-1.33773e-05
-6.59821e-06
-1.03944e-05
-7.58585e-06
-7.28633e-06
-7.75535e-06
-4.3928e-06
-7.01639e-06
-2.04888e-06
-5.42243e-06
-5.28815e-07
-3.21175e-06
-8.66467e-07
-8.34308e-07
1.97108e-06
-2.87794e-06
5.53549e-06
-5.73377e-06
8.25e-06
-9.05014e-06
9.94422e-06
-1.25145e-05
1.06264e-05
-1.58513e-05
1.03736e-05
-1.88192e-05
9.28736e-06
-2.12097e-05
7.47768e-06
-2.28473e-05
5.06388e-06
-2.35949e-05
2.18722e-06
-2.33626e-05
-9.73321e-07
-2.21218e-05
-4.18876e-06
-1.99208e-05
-7.17762e-06
-1.69004e-05
-9.61865e-06
-1.3303e-05
-1.11832e-05
-9.46905e-06
-1.15893e-05
-5.81144e-06
-1.0674e-05
-2.76739e-06
-8.46647e-06
-7.33016e-07
-5.24613e-06
-1.59948e-06
-1.02004e-06
2.99112e-06
-3.48119e-06
7.99664e-06
-6.87224e-06
1.16411e-05
-1.07625e-05
1.38345e-05
-1.47904e-05
1.46543e-05
-1.86519e-05
1.42351e-05
-2.20893e-05
1.27248e-05
-2.48824e-05
1.02708e-05
-2.68437e-05
7.02521e-06
-2.782e-05
3.16343e-06
-2.76994e-05
-1.09386e-06
-2.64264e-05
-5.46173e-06
-2.40217e-05
-9.58239e-06
-2.0606e-05
-1.30344e-05
-1.64223e-05
-1.53668e-05
-1.18459e-05
-1.61657e-05
-7.36975e-06
-1.51502e-05
-3.55574e-06
-1.22805e-05
-9.53117e-07
-7.84875e-06
-2.5526e-06
-1.1914e-06
4.18252e-06
-4.03974e-06
1.0845e-05
-7.92682e-06
1.55281e-05
-1.23468e-05
1.82545e-05
-1.68935e-05
1.9201e-05
-2.12414e-05
1.8583e-05
-2.51247e-05
1.66081e-05
-2.83197e-05
1.34658e-05
-3.06334e-05
9.33891e-06
-3.18989e-05
4.42894e-06
-3.19797e-05
-1.01308e-06
-3.07834e-05
-6.65803e-06
-2.82863e-05
-1.20795e-05
-2.45672e-05
-1.67534e-05
-1.9847e-05
-2.00871e-05
-1.452e-05
-2.14927e-05
-9.15968e-06
-2.05105e-05
-4.476e-06
-1.69642e-05
-1.21333e-06
-1.11114e-05
-3.76593e-06
-1.35074e-06
5.53326e-06
-4.55586e-06
1.40501e-05
-8.89297e-06
1.98652e-05
-1.37842e-05
2.31457e-05
-1.87849e-05
2.42018e-05
-2.3557e-05
2.33551e-05
-2.78374e-05
2.08884e-05
-3.14104e-05
1.70388e-05
-3.40871e-05
1.20156e-05
-3.56935e-05
6.03533e-06
-3.60693e-05
-6.37249e-07
-3.5079e-05
-7.64835e-06
-3.26382e-05
-1.45203e-05
-2.87578e-05
-2.06338e-05
-2.36033e-05
-2.52415e-05
-1.75577e-05
-2.75384e-05
-1.12612e-05
-2.6807e-05
-5.5901e-06
-2.26352e-05
-1.53884e-06
-1.51627e-05
-5.30476e-06
-1.50017e-06
7.03343e-06
-5.03133e-06
1.75813e-05
-9.76224e-06
2.45962e-05
-1.50433e-05
2.84268e-05
-2.03987e-05
2.95572e-05
-2.54898e-05
2.84461e-05
-3.0071e-05
2.54697e-05
-3.39504e-05
2.09181e-05
-3.69581e-05
1.50232e-05
-3.89259e-05
8.00315e-06
-3.96779e-05
1.14725e-07
-3.90353e-05
-8.29097e-06
-3.6841e-05
-1.67146e-05
-3.301e-05
-2.44647e-05
-2.76088e-05
-3.06427e-05
-2.09574e-05
-3.41898e-05
-1.37239e-05
-3.40405e-05
-6.95377e-06
-2.94054e-05
-1.95589e-06
-2.01606e-05
-7.26065e-06
-1.6449e-06
8.67832e-06
-5.47429e-06
2.14107e-05
-1.05307e-05
2.96526e-05
-1.60883e-05
3.39843e-05
-2.16489e-05
3.51178e-05
-2.68904e-05
3.36876e-05
-3.16047e-05
3.01841e-05
-3.56447e-05
2.49581e-05
-3.8881e-05
1.82595e-05
-4.11716e-05
1.02938e-05
-4.23424e-05
1.28559e-06
-4.21823e-05
-8.45107e-06
-4.04589e-05
-1.84381e-05
-3.69671e-05
-2.79566e-05
-3.16232e-05
-3.59866e-05
-2.46091e-05
-4.12039e-05
-1.65442e-05
-4.21054e-05
-8.61033e-06
-3.73392e-05
-2.49317e-06
-2.62777e-05
-9.75382e-06
-1.799e-06
1.04773e-05
-5.91091e-06
2.55226e-05
-1.12121e-05
3.49537e-05
-1.68905e-05
3.96627e-05
-2.24394e-05
4.06668e-05
-2.75772e-05
3.88254e-05
-3.21608e-05
3.47677e-05
-3.61148e-05
2.89121e-05
-3.93779e-05
2.15226e-05
-4.18621e-05
1.27779e-05
-4.34232e-05
2.84669e-06
-4.38421e-05
-8.03216e-06
-4.28245e-05
-1.94556e-05
-4.00352e-05
-3.07458e-05
-3.51915e-05
-4.08302e-05
-2.82416e-05
-4.81538e-05
-1.96304e-05
-5.07167e-05
-1.05802e-05
-4.63894e-05
-3.18391e-06
-3.3674e-05
-1.29377e-05
-1.99486e-06
1.24722e-05
-6.4014e-06
2.99291e-05
-1.18525e-05
4.04048e-05
-1.74376e-05
4.52478e-05
-2.26675e-05
4.58967e-05
-2.73386e-05
4.34965e-05
-3.1409e-05
3.88381e-05
-3.49081e-05
3.24113e-05
-3.78733e-05
2.44878e-05
-4.03033e-05
1.52079e-05
-4.212e-05
4.66337e-06
-4.31354e-05
-7.01678e-06
-4.30284e-05
-1.95627e-05
-4.13491e-05
-3.24251e-05
-3.7587e-05
-4.45923e-05
-3.13567e-05
-5.43841e-05
-2.27517e-05
-5.93217e-05
-1.28411e-05
-5.63e-05
-4.0687e-06
-4.24464e-05
-1.70064e-05
-2.29843e-06
1.47706e-05
-7.0592e-06
3.46899e-05
-1.25384e-05
4.58841e-05
-1.77262e-05
5.04355e-05
-2.22056e-05
5.03761e-05
-2.59112e-05
4.7202e-05
-2.89503e-05
4.18773e-05
-3.14933e-05
3.49543e-05
-3.37059e-05
2.67004e-05
-3.57035e-05
1.72055e-05
-3.75114e-05
6.47134e-06
-3.90217e-05
-5.50657e-06
-3.9944e-05
-1.86403e-05
-3.97669e-05
-3.26023e-05
-3.77674e-05
-4.65918e-05
-3.3154e-05
-5.89974e-05
-2.54626e-05
-6.70131e-05
-1.52897e-05
-6.64729e-05
-5.19734e-06
-5.25388e-05
-2.22038e-05
-2.83338e-06
1.7604e-05
-8.06527e-06
3.99218e-05
-1.33739e-05
5.11928e-05
-1.77023e-05
5.47639e-05
-2.08208e-05
5.34946e-05
-2.28961e-05
4.92774e-05
-2.42453e-05
4.32264e-05
-2.52127e-05
3.59216e-05
-2.6111e-05
2.75987e-05
-2.71889e-05
1.82833e-05
-2.86009e-05
7.88341e-06
-3.03646e-05
-3.74295e-06
-3.2293e-05
-1.67119e-05
-3.39072e-05
-3.0988e-05
-3.43581e-05
-4.6141e-05
-3.24544e-05
-6.09011e-05
-2.69945e-05
-7.2473e-05
-1.7666e-05
-7.58014e-05
-6.62211e-06
-6.35827e-05
-2.88259e-05
-3.81237e-06
2.14164e-05
-9.64519e-06
4.57546e-05
-1.43636e-05
5.59112e-05
-1.70735e-05
5.74737e-05
-1.79562e-05
5.43772e-05
-1.75457e-05
4.8867e-05
-1.64296e-05
4.21104e-05
-1.51412e-05
3.46332e-05
-1.41329e-05
2.65904e-05
-1.37724e-05
1.79229e-05
-1.43407e-05
8.45173e-06
-1.60031e-05
-2.08051e-06
-1.87423e-05
-1.39727e-05
-2.22354e-05
-2.74949e-05
-2.56779e-05
-4.26985e-05
-2.76258e-05
-5.89532e-05
-2.6095e-05
-7.40038e-05
-1.93958e-05
-8.25006e-05
-8.35156e-06
-7.4627e-05
-3.71775e-05
-5.53813e-06
2.69545e-05
-1.18877e-05
5.21042e-05
-1.50294e-05
5.90529e-05
-1.48219e-05
5.72663e-05
-1.22364e-05
5.17917e-05
-8.31977e-06
4.49504e-05
-3.94957e-06
3.77402e-05
1.89997e-07
3.04936e-05
3.5699e-06
2.32105e-05
5.76005e-06
1.57327e-05
6.40307e-06
7.80871e-06
5.20804e-06
-8.8548e-07
1.99513e-06
-1.07598e-05
-3.1854e-06
-2.23144e-05
-9.81086e-06
-3.60731e-05
-1.65183e-05
-5.22457e-05
-2.07842e-05
-6.97379e-05
-1.92606e-05
-8.40242e-05
-1.01749e-05
-8.37126e-05
-4.73524e-05
-8.2217e-06
3.51762e-05
-1.40149e-05
5.78973e-05
-1.33385e-05
5.83765e-05
-8.10061e-06
5.20284e-05
-5.10883e-07
4.4202e-05
7.86457e-06
3.65749e-05
1.59907e-05
2.9614e-05
2.31884e-05
2.32959e-05
2.89856e-05
1.74133e-05
3.30133e-05
1.1705e-05
3.49346e-05
5.88741e-06
3.4408e-05
-3.58881e-07
3.1095e-05
-7.44674e-06
2.47201e-05
-1.59395e-05
1.52934e-05
-2.66463e-05
3.59687e-06
-4.05492e-05
-7.99595e-06
-5.81451e-05
-1.48e-05
-7.72201e-05
-1.12122e-05
-8.73004e-05
-5.85646e-05
-1.11174e-05
4.62936e-05
-1.19963e-05
5.87762e-05
-3.05488e-06
4.94351e-05
9.91649e-06
3.90571e-05
2.36276e-05
3.04908e-05
3.65402e-05
2.36624e-05
4.7922e-05
1.82322e-05
5.74171e-05
1.38008e-05
6.48285e-05
1.00019e-05
6.99942e-05
6.53928e-06
7.27164e-05
3.16523e-06
7.27152e-05
-3.57679e-07
6.95936e-05
-4.3252e-06
6.28186e-05
-9.16448e-06
5.17909e-05
-1.56186e-05
3.6199e-05
-2.49574e-05
1.70689e-05
-3.9015e-05
-1.16264e-06
-5.89885e-05
-8.99107e-06
-7.9472e-05
-6.75556e-05
-6.94749e-06
5.32411e-05
9.1361e-06
4.26926e-05
3.18074e-05
2.67638e-05
5.2955e-05
1.79095e-05
7.09408e-05
1.2505e-05
8.57345e-05
8.86865e-06
9.76192e-05
6.34749e-06
0.0001069
4.52005e-06
0.000113807
3.09479e-06
0.000118463
1.8838e-06
0.000120866
7.61331e-07
0.000120887
-3.78147e-07
0.000118203
-1.64154e-06
0.00011224
-3.2011e-06
0.000102015
-5.39393e-06
8.60355e-05
-8.97773e-06
6.27079e-05
-1.56874e-05
3.2544e-05
-2.88246e-05
4.33817e-06
-5.12662e-05
-6.32174e-05
5.32411e-05
9.59337e-05
0.000122698
0.000140607
0.000153112
0.000161981
0.000168328
0.000172848
0.000175943
0.000177827
0.000178588
0.00017821
0.000176568
0.000173367
0.000167973
0.000158996
0.000143308
0.000114484
6.32174e-05
)
;

boundaryField
{
    movingWall
    {
        type            calculated;
        value           uniform 0;
    }
    fixedWalls
    {
        type            calculated;
        value           uniform 0;
    }
    frontAndBack
    {
        type            empty;
        value           nonuniform List<scalar> 0();
    }
}


// ************************************************************************* //
