/*--------------------------------*- C++ -*----------------------------------*\
  =========                 |
  \\      /  F ield         | OpenFOAM: The Open Source CFD Toolbox
   \\    /   O peration     | Website:  https://openfoam.org
    \\  /    A nd           | Version:  8
     \\/     M anipulation  |
\*---------------------------------------------------------------------------*/
FoamFile
{
    version     2.0;
    format      ascii;
    class       volVectorField;
    location    "0.4";
    object      U;
}
// * * * * * * * * * * * * * * * * * * * * * * * * * * * * * * * * * * * * * //

dimensions      [0 1 -1 0 0 0 0];

internalField   nonuniform List<vector> 
400
(
(0.000590397 -0.000585927 0)
(0.000272471 0.000291485 0)
(-0.00292634 0.00135884 0)
(-0.00842543 0.00209785 0)
(-0.015282 0.00246483 0)
(-0.0225866 0.00250621 0)
(-0.0295426 0.00228053 0)
(-0.0354864 0.00184169 0)
(-0.0398863 0.0012364 0)
(-0.0423407 0.00050994 0)
(-0.04259 -0.000286014 0)
(-0.0405421 -0.00108723 0)
(-0.0363069 -0.0018145 0)
(-0.0302271 -0.00237613 0)
(-0.0228939 -0.00267585 0)
(-0.0151334 -0.00262669 0)
(-0.00794729 -0.00217128 0)
(-0.00239658 -0.00130873 0)
(0.000592113 -0.00016779 0)
(0.00067296 0.000655975 0)
(-0.000230729 -0.000333448 0)
(-0.00401658 0.00404696 0)
(-0.0138768 0.00869324 0)
(-0.0282788 0.011974 0)
(-0.0453208 0.0135992 0)
(-0.0631334 0.0136523 0)
(-0.0799529 0.012336 0)
(-0.0942397 0.00988688 0)
(-0.104739 0.00654922 0)
(-0.110513 0.00258372 0)
(-0.110979 -0.001711 0)
(-0.105968 -0.00598121 0)
(-0.0957852 -0.00981553 0)
(-0.0812555 -0.0127637 0)
(-0.0637371 -0.01438 0)
(-0.0450619 -0.0142943 0)
(-0.0273692 -0.0123094 0)
(-0.0128217 -0.00852069 0)
(-0.00332631 -0.00354337 0)
(-2.87019e-05 0.000672329 0)
(-0.0013393 0.00280395 0)
(-0.00912696 0.0139905 0)
(-0.0257094 0.0245565 0)
(-0.0481782 0.031931 0)
(-0.0737934 0.0354658 0)
(-0.100063 0.0352411 0)
(-0.124607 0.0316545 0)
(-0.145318 0.0252419 0)
(-0.160472 0.0166073 0)
(-0.16878 0.00642298 0)
(-0.169448 -0.00454008 0)
(-0.162255 -0.0153876 0)
(-0.147623 -0.0251067 0)
(-0.126674 -0.0326175 0)
(-0.101241 -0.0368801 0)
(-0.0737903 -0.0370623 0)
(-0.0471963 -0.032763 0)
(-0.0243818 -0.0242672 0)
(-0.00817584 -0.0129009 0)
(-0.00103857 -0.00197213 0)
(-0.00232346 0.00869318 0)
(-0.0139293 0.0297017 0)
(-0.0370323 0.047805 0)
(-0.0671126 0.0600185 0)
(-0.100522 0.0655308 0)
(-0.134234 0.0645123 0)
(-0.165423 0.0576269 0)
(-0.1916 0.0457868 0)
(-0.210734 0.030046 0)
(-0.2213 0.0115936 0)
(-0.222351 -0.00820858 0)
(-0.213589 -0.0277948 0)
(-0.19546 -0.0454076 0)
(-0.169224 -0.0591841 0)
(-0.136991 -0.0673342 0)
(-0.101665 -0.0684181 0)
(-0.0667126 -0.0617093 0)
(-0.0357969 -0.0475872 0)
(-0.0128382 -0.0279748 0)
(-0.00193601 -0.00720745 0)
(-0.00318142 0.0170344 0)
(-0.018345 0.0507761 0)
(-0.0476865 0.0778805 0)
(-0.0850282 0.0954326 0)
(-0.125762 0.102769 0)
(-0.166353 0.100341 0)
(-0.203612 0.0891981 0)
(-0.234785 0.0707057 0)
(-0.257641 0.0464255 0)
(-0.270495 0.0181112 0)
(-0.27226 -0.0122386 0)
(-0.262523 -0.0423316 0)
(-0.241649 -0.0695916 0)
(-0.210894 -0.0912673 0)
(-0.172489 -0.104672 0)
(-0.129653 -0.107572 0)
(-0.0864085 -0.0986978 0)
(-0.0472424 -0.0782893 0)
(-0.0173705 -0.0486255 0)
(-0.00274295 -0.0148203 0)
(-0.0039645 0.0276165 0)
(-0.0224919 0.0769571 0)
(-0.0578171 0.114548 0)
(-0.102121 0.137916 0)
(-0.14982 0.146876 0)
(-0.196888 0.142405 0)
(-0.239838 0.126097 0)
(-0.275744 0.0998601 0)
(-0.302257 0.0658066 0)
(-0.31759 0.0262634 0)
(-0.320522 -0.0161385 0)
(-0.310473 -0.0583801 0)
(-0.287621 -0.0970354 0)
(-0.253066 -0.128376 0)
(-0.209002 -0.148652 0)
(-0.158843 -0.154579 0)
(-0.107143 -0.144018 0)
(-0.0593132 -0.116726 0)
(-0.0220976 -0.0750489 0)
(-0.00355571 -0.0247704 0)
(-0.00471929 0.0403225 0)
(-0.0265043 0.108048 0)
(-0.0676133 0.157573 0)
(-0.118584 0.187183 0)
(-0.172858 0.197522 0)
(-0.225955 0.190374 0)
(-0.274176 0.168064 0)
(-0.314518 0.133148 0)
(-0.344617 0.088311 0)
(-0.362646 0.0364253 0)
(-0.367271 -0.0193033 0)
(-0.357699 -0.075187 0)
(-0.333807 -0.126971 0)
(-0.296367 -0.169891 0)
(-0.247337 -0.198953 0)
(-0.19015 -0.2095 0)
(-0.129804 -0.198082 0)
(-0.0727066 -0.163485 0)
(-0.0274046 -0.107741 0)
(-0.00447941 -0.0372379 0)
(-0.00548425 0.0551141 0)
(-0.0305018 0.143925 0)
(-0.0772348 0.206712 0)
(-0.134512 0.242854 0)
(-0.194802 0.25422 0)
(-0.253242 0.243729 0)
(-0.30604 0.214658 0)
(-0.350262 0.170315 0)
(-0.383661 0.113967 0)
(-0.404475 0.0489629 0)
(-0.411309 -0.0210332 0)
(-0.403135 -0.0917944 0)
(-0.379422 -0.158332 0)
(-0.340418 -0.214845 0)
(-0.287574 -0.254934 0)
(-0.224059 -0.272198 0)
(-0.155101 -0.261295 0)
(-0.0880904 -0.219356 0)
(-0.0336863 -0.147523 0)
(-0.00562223 -0.0526291 0)
(-0.00629791 0.0720202 0)
(-0.0346036 0.184528 0)
(-0.086816 0.261684 0)
(-0.149892 0.30438 0)
(-0.215313 0.316195 0)
(-0.277957 0.301591 0)
(-0.334126 0.265053 0)
(-0.381159 0.210755 0)
(-0.417126 0.142533 0)
(-0.440494 0.0641024 0)
(-0.449912 -0.0205997 0)
(-0.444142 -0.107023 0)
(-0.422168 -0.189643 0)
(-0.383497 -0.261726 0)
(-0.328732 -0.315377 0)
(-0.260343 -0.34207 0)
(-0.18338 -0.333852 0)
(-0.106022 -0.28523 0)
(-0.04134 -0.195519 0)
(-0.00710325 -0.0715765 0)
(-0.00721883 0.0911473 0)
(-0.0389824 0.229865 0)
(-0.0965292 0.322119 0)
(-0.164634 0.370906 0)
(-0.233785 0.382189 0)
(-0.298793 0.362479 0)
(-0.356336 0.317784 0)
(-0.404323 0.253258 0)
(-0.441417 0.17327 0)
(-0.466549 0.0817429 0)
(-0.478592 -0.0173652 0)
(-0.4762 -0.119499 0)
(-0.457845 -0.218929 0)
(-0.422106 -0.308255 0)
(-0.368337 -0.37815 0)
(-0.297706 -0.417652 0)
(-0.214397 -0.415374 0)
(-0.126871 -0.361858 0)
(-0.0507823 -0.253078 0)
(-0.00907171 -0.0949504 0)
(-0.00836165 0.112736 0)
(-0.0439574 0.280042 0)
(-0.106688 0.387482 0)
(-0.17864 0.441098 0)
(-0.24933 0.450199 0)
(-0.313847 0.42402 0)
(-0.369661 0.370445 0)
(-0.415657 0.295719 0)
(-0.451448 0.20467 0)
(-0.476736 0.101221 0)
(-0.490875 -0.0109694 0)
(-0.492601 -0.127756 0)
(-0.479953 -0.243694 0)
(-0.450477 -0.351198 0)
(-0.401879 -0.439831 0)
(-0.333287 -0.496106 0)
(-0.246983 -0.504374 0)
(-0.150703 -0.449475 0)
(-0.0624798 -0.321652 0)
(-0.0117407 -0.123898 0)
(-0.00996084 0.1373 0)
(-0.0501379 0.335354 0)
(-0.117864 0.456977 0)
(-0.191796 0.512882 0)
(-0.260659 0.517153 0)
(-0.320415 0.482608 0)
(-0.369945 0.419377 0)
(-0.409636 0.334853 0)
(-0.440463 0.234193 0)
(-0.463251 0.121053 0)
(-0.47814 -0.00157112 0)
(-0.484229 -0.13044 0)
(-0.479346 -0.26102 0)
(-0.460059 -0.386277 0)
(-0.422169 -0.495367 0)
(-0.36199 -0.572606 0)
(-0.278521 -0.597517 0)
(-0.17705 -0.547193 0)
(-0.0769817 -0.402575 0)
(-0.0154447 -0.159935 0)
(-0.012484 0.165895 0)
(-0.0586244 0.396398 0)
(-0.130943 0.529328 0)
(-0.20377 0.583019 0)
(-0.265646 0.578442 0)
(-0.314457 0.533 0)
(-0.351375 0.459359 0)
(-0.378898 0.365971 0)
(-0.399784 0.258068 0)
(-0.416275 0.13873 0)
(-0.429591 0.00989879 0)
(-0.439523 -0.126591 0)
(-0.44406 -0.267823 0)
(-0.439119 -0.408275 0)
(-0.41865 -0.537854 0)
(-0.375589 -0.639701 0)
(-0.304099 -0.688626 0)
(-0.204437 -0.652037 0)
(-0.0949198 -0.49665 0)
(-0.0207332 -0.205114 0)
(-0.0168223 0.200608 0)
(-0.0712357 0.464108 0)
(-0.146895 0.602225 0)
(-0.213219 0.646342 0)
(-0.260189 0.627254 0)
(-0.289386 0.567894 0)
(-0.305418 0.483419 0)
(-0.313487 0.382942 0)
(-0.318382 0.271327 0)
(-0.323881 0.150687 0)
(-0.332412 0.0215761 0)
(-0.344736 -0.115982 0)
(-0.35949 -0.261319 0)
(-0.372596 -0.411471 0)
(-0.376758 -0.558675 0)
(-0.361592 -0.686835 0)
(-0.315165 -0.767489 0)
(-0.22941 -0.757434 0)
(-0.116828 -0.603285 0)
(-0.0284875 -0.262273 0)
(-0.0245332 0.245298 0)
(-0.0905126 0.539382 0)
(-0.165602 0.671051 0)
(-0.215567 0.694454 0)
(-0.235579 0.653739 0)
(-0.233598 0.577651 0)
(-0.21885 0.483011 0)
(-0.199499 0.378633 0)
(-0.182184 0.268282 0)
(-0.171908 0.152676 0)
(-0.172104 0.0307612 0)
(-0.184566 -0.0993963 0)
(-0.209049 -0.239698 0)
(-0.242437 -0.390573 0)
(-0.277534 -0.548328 0)
(-0.301861 -0.700499 0)
(-0.297332 -0.818785 0)
(-0.244432 -0.851044 0)
(-0.142256 -0.718696 0)
(-0.0398908 -0.335177 0)
(-0.0377791 0.306754 0)
(-0.118397 0.621417 0)
(-0.181927 0.726049 0)
(-0.197571 0.71365 0)
(-0.173133 0.644233 0)
(-0.126065 0.550611 0)
(-0.0705955 0.449003 0)
(-0.0171417 0.346179 0)
(0.0268433 0.243795 0)
(0.0560975 0.140778 0)
(0.066899 0.0345023 0)
(0.056744 -0.0786554 0)
(0.0245178 -0.202901 0)
(-0.028675 -0.34222 0)
(-0.0977924 -0.498284 0)
(-0.17112 -0.665568 0)
(-0.226931 -0.821663 0)
(-0.233466 -0.911957 0)
(-0.166724 -0.832658 0)
(-0.0555184 -0.428714 0)
(-0.0574168 0.397176 0)
(-0.150141 0.702538 0)
(-0.174495 0.74567 0)
(-0.125318 0.681147 0)
(-0.0345237 0.580615 0)
(0.0702639 0.474429 0)
(0.172167 0.373878 0)
(0.261141 0.281346 0)
(0.331157 0.195421 0)
(0.378406 0.113146 0)
(0.400089 0.0307702 0)
(0.393752 -0.0561993 0)
(0.357123 -0.15321 0)
(0.288588 -0.266802 0)
(0.188806 -0.40387 0)
(0.0643396 -0.568187 0)
(-0.0659378 -0.750424 0)
(-0.163645 -0.907064 0)
(-0.173839 -0.922503 0)
(-0.0714298 -0.549615 0)
(-0.0724725 0.531372 0)
(-0.15325 0.752399 0)
(-0.077888 0.685446 0)
(0.0786665 0.562801 0)
(0.252424 0.443539 0)
(0.41541 0.341236 0)
(0.556201 0.256814 0)
(0.670175 0.186747 0)
(0.755866 0.126621 0)
(0.812857 0.0723044 0)
(0.840532 0.0199334 0)
(0.837421 -0.0345452 0)
(0.800802 -0.0960542 0)
(0.726563 -0.171317 0)
(0.609818 -0.269794 0)
(0.447605 -0.403371 0)
(0.245162 -0.580858 0)
(0.0294861 -0.789155 0)
(-0.117224 -0.937454 0)
(-0.0653404 -0.69354 0)
(0.00362899 0.648057 0)
(0.0157012 0.677939 0)
(0.280625 0.491729 0)
(0.56759 0.344793 0)
(0.803782 0.242615 0)
(0.990315 0.170982 0)
(1.13488 0.120105 0)
(1.24336 0.0827062 0)
(1.3206 0.0535521 0)
(1.37008 0.0290331 0)
(1.39356 0.00648322 0)
(1.39098 -0.0164732 0)
(1.36017 -0.0426481 0)
(1.29617 -0.0762273 0)
(1.19041 -0.124428 0)
(1.03005 -0.200074 0)
(0.797043 -0.324088 0)
(0.475144 -0.521338 0)
(0.137836 -0.771159 0)
(0.0632443 -0.750889 0)
(0.704726 0.344769 0)
(0.920128 0.303429 0)
(1.29263 0.185995 0)
(1.57257 0.111067 0)
(1.7449 0.0677413 0)
(1.8563 0.0419914 0)
(1.93215 0.0263108 0)
(1.98383 0.0163567 0)
(2.01774 0.0095465 0)
(2.03767 0.00438227 0)
(2.04554 -4.79779e-05 0)
(2.04185 -0.00440691 0)
(2.02573 -0.00943292 0)
(1.99441 -0.0162622 0)
(1.94201 -0.0271577 0)
(1.85662 -0.0470385 0)
(1.71087 -0.0865607 0)
(1.44188 -0.166465 0)
(1.03091 -0.304792 0)
(0.757506 -0.363533 0)
)
;

boundaryField
{
    movingWall
    {
        type            fixedValue;
        value           uniform (2.4 0 0);
    }
    fixedWalls
    {
        type            noSlip;
    }
    frontAndBack
    {
        type            empty;
    }
}


// ************************************************************************* //
