/*--------------------------------*- C++ -*----------------------------------*\
  =========                 |
  \\      /  F ield         | OpenFOAM: The Open Source CFD Toolbox
   \\    /   O peration     | Website:  https://openfoam.org
    \\  /    A nd           | Version:  8
     \\/     M anipulation  |
\*---------------------------------------------------------------------------*/
FoamFile
{
    version     2.0;
    format      ascii;
    class       surfaceScalarField;
    location    "0.1";
    object      phi;
}
// * * * * * * * * * * * * * * * * * * * * * * * * * * * * * * * * * * * * * //

dimensions      [0 3 -1 0 0 0 0];

internalField   nonuniform List<scalar> 
760
(
5.48943e-08
-5.48934e-08
-1.13182e-07
1.68075e-07
-5.12452e-07
3.9927e-07
-1.06719e-06
5.54735e-07
-1.6974e-06
6.30217e-07
-2.3326e-06
6.35196e-07
-2.91284e-06
5.80239e-07
-3.38717e-06
4.74335e-07
-3.71238e-06
3.25204e-07
-3.85381e-06
1.41435e-07
-3.78876e-06
-6.50474e-08
-3.51155e-06
-2.77211e-07
-3.03896e-06
-4.72595e-07
-2.41413e-06
-6.24833e-07
-1.7069e-06
-7.07227e-07
-1.0088e-06
-6.98101e-07
-4.2149e-07
-5.87311e-07
-3.87361e-08
-3.82753e-07
8.2885e-08
-1.21621e-07
8.28865e-08
-1.63935e-07
1.0904e-07
-8.15134e-07
8.19274e-07
-1.91242e-06
1.49656e-06
-3.3182e-06
1.96051e-06
-4.87233e-06
2.18435e-06
-6.41999e-06
2.18286e-06
-7.82162e-06
1.98187e-06
-8.95575e-06
1.60846e-06
-9.72077e-06
1.09022e-06
-1.0039e-05
4.59668e-07
-9.8641e-06
-2.3995e-07
-9.19054e-06
-9.50766e-07
-8.06302e-06
-1.60012e-06
-6.58204e-06
-2.10581e-06
-4.90218e-06
-2.38708e-06
-3.21937e-06
-2.38092e-06
-1.74496e-06
-2.06172e-06
-6.66925e-07
-1.46079e-06
-9.87118e-08
-6.89831e-07
-1.58246e-08
-4.23951e-07
5.32992e-07
-1.59489e-06
1.99021e-06
-3.35595e-06
3.25762e-06
-5.50337e-06
4.10794e-06
-7.81962e-06
4.50059e-06
-1.0095e-05
4.4583e-06
-1.21385e-05
4.02533e-06
-1.37823e-05
3.25225e-06
-1.48864e-05
2.19432e-06
-1.53449e-05
9.1817e-07
-1.50957e-05
-4.89175e-07
-1.41322e-05
-1.91423e-06
-1.2515e-05
-3.21738e-06
-1.03783e-05
-4.24249e-06
-7.92849e-06
-4.83687e-06
-5.42837e-06
-4.88103e-06
-3.16536e-06
-4.32474e-06
-1.40434e-06
-3.22181e-06
-3.311e-07
-1.76307e-06
-3.46925e-07
-6.62342e-07
1.19533e-06
-2.33521e-06
3.66307e-06
-4.72916e-06
5.65157e-06
-7.56048e-06
6.93926e-06
-1.05571e-05
7.49726e-06
-1.34676e-05
7.36877e-06
-1.60657e-05
6.62338e-06
-1.81533e-05
5.33986e-06
-1.95644e-05
3.60544e-06
-2.01719e-05
1.52567e-06
-1.98981e-05
-7.62936e-07
-1.87284e-05
-3.08396e-06
-1.67248e-05
-5.22101e-06
-1.40365e-05
-6.93073e-06
-1.0902e-05
-7.97139e-06
-7.63591e-06
-8.14714e-06
-4.59745e-06
-7.3632e-06
-2.13992e-06
-5.67934e-06
-5.50346e-07
-3.35264e-06
-8.97272e-07
-8.76446e-07
2.07178e-06
-3.01912e-06
5.80574e-06
-6.01001e-06
8.64247e-06
-9.48139e-06
1.04106e-05
-1.31078e-05
1.11237e-05
-1.66027e-05
1.08637e-05
-1.97151e-05
9.73576e-06
-2.22268e-05
7.85159e-06
-2.39534e-05
5.33204e-06
-2.47492e-05
2.32141e-06
-2.45173e-05
-9.94791e-07
-2.32249e-05
-4.3764e-06
-2.09202e-05
-7.5257e-06
-1.77498e-05
-1.01011e-05
-1.39688e-05
-1.17523e-05
-9.9371e-06
-1.21789e-05
-6.09194e-06
-1.12084e-05
-2.89568e-06
-8.8756e-06
-7.64521e-07
-5.4838e-06
-1.66179e-06
-1.07078e-06
3.14256e-06
-3.64914e-06
8.38411e-06
-7.19795e-06
1.21913e-05
-1.12676e-05
1.44803e-05
-1.54822e-05
1.53383e-05
-1.95263e-05
1.49078e-05
-2.31322e-05
1.33416e-05
-2.60698e-05
1.07891e-05
-2.81417e-05
7.40398e-06
-2.91849e-05
3.36461e-06
-2.90788e-05
-1.10095e-06
-2.77607e-05
-5.69446e-06
-2.52485e-05
-1.00379e-05
-2.16662e-05
-1.36834e-05
-1.72686e-05
-1.61499e-05
-1.24524e-05
-1.69951e-05
-7.74034e-06
-1.59204e-05
-3.72848e-06
-1.28875e-05
-9.96381e-07
-8.2159e-06
-2.65817e-06
-1.24901e-06
4.39157e-06
-4.22918e-06
1.13643e-05
-8.29246e-06
1.62545e-05
-1.2912e-05
1.90998e-05
-1.76665e-05
2.00928e-05
-2.2219e-05
1.94604e-05
-2.62939e-05
1.74165e-05
-2.96577e-05
1.4153e-05
-3.21072e-05
9.85348e-06
-3.34645e-05
4.72187e-06
-3.35817e-05
-9.83707e-07
-3.23563e-05
-6.91985e-06
-2.97574e-05
-1.26369e-05
-2.5863e-05
-1.75779e-05
-2.09025e-05
-2.11103e-05
-1.52923e-05
-2.26053e-05
-9.64151e-06
-2.15712e-05
-4.70508e-06
-1.78239e-05
-1.27187e-06
-1.16491e-05
-3.93005e-06
-1.4132e-06
5.80477e-06
-4.76052e-06
1.47116e-05
-9.28703e-06
2.07811e-05
-1.43925e-05
2.42053e-05
-1.96172e-05
2.53175e-05
-2.4612e-05
2.44551e-05
-2.91047e-05
2.19091e-05
-3.28704e-05
1.79187e-05
-3.57101e-05
1.26932e-05
-3.7438e-05
6.44972e-06
-3.78802e-05
-5.41416e-07
-3.68874e-05
-7.91271e-06
-3.43626e-05
-1.51616e-05
-3.03096e-05
-2.16308e-05
-2.48972e-05
-2.65228e-05
-1.85277e-05
-2.89748e-05
-1.18813e-05
-2.82176e-05
-5.89211e-06
-2.38131e-05
-1.61807e-06
-1.59231e-05
-5.54812e-06
-1.56516e-06
7.36993e-06
-5.24405e-06
1.83905e-05
-1.01714e-05
2.57084e-05
-1.56748e-05
2.97087e-05
-2.12635e-05
3.09063e-05
-2.65891e-05
2.97807e-05
-3.13981e-05
2.67181e-05
-3.54905e-05
2.20112e-05
-3.86872e-05
1.58899e-05
-4.08082e-05
8.57064e-06
-4.16624e-05
3.12871e-07
-4.1054e-05
-8.52116e-06
-3.88076e-05
-1.7408e-05
-3.48231e-05
-2.56153e-05
-2.91614e-05
-3.21845e-05
-2.21551e-05
-3.59811e-05
-1.45126e-05
-3.58601e-05
-7.3495e-06
-3.09762e-05
-2.06328e-06
-2.12094e-05
-7.6114e-06
-1.71004e-06
9.07997e-06
-5.68766e-06
2.23681e-05
-1.09408e-05
3.09615e-05
-1.67207e-05
3.54886e-05
-2.25152e-05
3.67008e-05
-2.79937e-05
3.52591e-05
-3.29421e-05
3.16665e-05
-3.72072e-05
2.62763e-05
-4.06521e-05
1.93348e-05
-4.31241e-05
1.10426e-05
-4.44343e-05
1.62311e-06
-4.43523e-05
-8.60319e-06
-4.26226e-05
-1.91377e-05
-3.90165e-05
-2.92214e-05
-3.34326e-05
-3.77684e-05
-2.60527e-05
-4.33609e-05
-1.75294e-05
-4.43834e-05
-9.12341e-06
-3.93822e-05
-2.63838e-06
-2.76944e-05
-1.02498e-05
-1.86239e-06
1.09424e-05
-6.11867e-06
2.66244e-05
-1.16101e-05
3.64529e-05
-1.75018e-05
4.13803e-05
-2.32743e-05
4.24733e-05
-2.86391e-05
4.06239e-05
-3.34495e-05
3.64769e-05
-3.76268e-05
3.04535e-05
-4.11047e-05
2.28127e-05
-4.37876e-05
1.37255e-05
-4.55186e-05
3.35417e-06
-4.60602e-05
-8.06161e-06
-4.50926e-05
-2.01053e-05
-4.22495e-05
-3.20646e-05
-3.72166e-05
-4.28013e-05
-2.99231e-05
-5.06544e-05
-2.08293e-05
-5.34772e-05
-1.12343e-05
-4.89771e-05
-3.37903e-06
-3.55497e-05
-1.36288e-05
-2.05612e-06
1.29985e-05
-6.60098e-06
3.11693e-05
-1.22304e-05
4.20824e-05
-1.80106e-05
4.71605e-05
-2.3441e-05
4.79037e-05
-2.83136e-05
4.54964e-05
-3.25853e-05
4.07487e-05
-3.62856e-05
3.41539e-05
-3.9451e-05
2.59781e-05
-4.20769e-05
1.63513e-05
-4.40774e-05
5.35473e-06
-4.52505e-05
-6.88852e-06
-4.52515e-05
-2.01043e-05
-4.35961e-05
-3.372e-05
-3.97296e-05
-4.66677e-05
-3.32239e-05
-5.71601e-05
-2.41572e-05
-6.25439e-05
-1.36547e-05
-5.94796e-05
-4.32822e-06
-4.48762e-05
-1.7957e-05
-2.36056e-06
1.5359e-05
-7.25576e-06
3.60645e-05
-1.28985e-05
4.77251e-05
-1.82543e-05
5.25164e-05
-2.28971e-05
5.25465e-05
-2.676e-05
4.93593e-05
-2.99526e-05
4.39413e-05
-3.2649e-05
3.68503e-05
-3.50188e-05
2.83479e-05
-3.718e-05
1.85126e-05
-3.9158e-05
7.33266e-06
-4.08384e-05
-5.20811e-06
-4.19152e-05
-1.90275e-05
-4.18457e-05
-3.37895e-05
-3.98565e-05
-4.86569e-05
-3.50902e-05
-6.19264e-05
-2.70249e-05
-7.06093e-05
-1.62664e-05
-7.02382e-05
-5.53758e-06
-5.5605e-05
-2.34946e-05
-2.90596e-06
1.8265e-05
-8.27763e-06
4.14361e-05
-1.37353e-05
5.31827e-05
-1.81958e-05
5.69769e-05
-2.14244e-05
5.57751e-05
-2.35909e-05
5.15258e-05
-2.50191e-05
4.53694e-05
-2.60616e-05
3.78928e-05
-2.70404e-05
2.93268e-05
-2.82137e-05
1.96859e-05
-2.97448e-05
8.86373e-06
-3.16561e-05
-3.29679e-06
-3.37579e-05
-1.69257e-05
-3.5552e-05
-3.19954e-05
-3.61435e-05
-4.80654e-05
-3.42607e-05
-6.38092e-05
-2.85985e-05
-7.62715e-05
-1.87786e-05
-8.00581e-05
-7.05845e-06
-6.73251e-05
-3.0553e-05
-3.91698e-06
2.2182e-05
-9.91321e-06
4.74324e-05
-1.47673e-05
5.80368e-05
-1.75604e-05
5.977e-05
-1.84774e-05
5.66921e-05
-1.80639e-05
5.11123e-05
-1.69206e-05
4.42262e-05
-1.5595e-05
3.65672e-05
-1.45545e-05
2.82863e-05
-1.41835e-05
1.93148e-05
-1.478e-05
9.46027e-06
-1.65264e-05
-1.55041e-06
-1.94178e-05
-1.40344e-05
-2.31317e-05
-2.82814e-05
-2.68366e-05
-4.43605e-05
-2.90121e-05
-6.16337e-05
-2.75365e-05
-7.77471e-05
-2.05611e-05
-8.70335e-05
-8.88987e-06
-7.89963e-05
-3.94429e-05
-5.71639e-06
2.78984e-05
-1.22768e-05
5.39928e-05
-1.55301e-05
6.129e-05
-1.53261e-05
5.95661e-05
-1.26607e-05
5.40266e-05
-8.60661e-06
4.70582e-05
-4.06449e-06
3.9684e-05
2.60167e-07
3.22425e-05
3.81689e-06
2.47296e-05
6.15424e-06
1.69775e-05
6.89104e-06
8.72348e-06
5.70963e-06
-3.6901e-07
2.40567e-06
-1.07304e-05
-2.99349e-06
-2.28822e-05
-9.9679e-06
-3.73861e-05
-1.71075e-05
-5.44942e-05
-2.17492e-05
-7.31054e-05
-2.03025e-05
-8.84802e-05
-1.07893e-05
-8.85095e-05
-5.02323e-05
-8.54136e-06
3.64397e-05
-1.45941e-05
6.00456e-05
-1.39442e-05
6.06401e-05
-8.55449e-06
5.41764e-05
-7.01689e-07
4.61738e-05
8.00092e-06
3.83556e-05
1.64841e-05
3.12008e-05
2.40412e-05
2.46854e-05
3.01761e-05
1.85947e-05
3.44959e-05
1.26577e-05
3.66388e-05
6.58057e-06
3.62295e-05
4.03271e-08
3.29054e-05
-7.40634e-06
2.63491e-05
-1.63259e-05
1.65374e-05
-2.75744e-05
4.24919e-06
-4.2206e-05
-8.05016e-06
-6.0806e-05
-1.54061e-05
-8.11242e-05
-1.18005e-05
-9.21152e-05
-6.20327e-05
-1.16493e-05
4.8089e-05
-1.26965e-05
6.10929e-05
-3.50486e-06
5.14484e-05
9.91973e-06
4.07518e-05
2.41669e-05
3.19267e-05
3.76408e-05
2.48817e-05
4.95756e-05
1.92661e-05
5.95913e-05
1.46697e-05
6.74709e-05
1.0715e-05
7.30334e-05
7.0952e-06
7.606e-05
3.55401e-06
7.62478e-05
-1.47489e-07
7.31687e-05
-4.32726e-06
6.6252e-05
-9.40918e-06
5.48471e-05
-1.61695e-05
3.85856e-05
-2.59445e-05
1.84879e-05
-4.07082e-05
-8.17083e-07
-6.18192e-05
-9.30247e-06
-8.36298e-05
-7.13352e-05
-7.48544e-06
5.55744e-05
9.11987e-06
4.44876e-05
3.26605e-05
2.79078e-05
5.46735e-05
1.87388e-05
7.34577e-05
1.31425e-05
8.8974e-05
9.36535e-06
0.000101502
6.73813e-06
0.000111344
4.82773e-06
0.000118727
3.33225e-06
0.000123766
2.05632e-06
0.00012645
8.69363e-07
0.000126639
-3.36612e-07
0.000123987
-1.67471e-06
0.000117894
-3.31647e-06
0.000107334
-5.60895e-06
9.07281e-05
-9.33911e-06
6.63606e-05
-1.63408e-05
3.46849e-05
-3.01435e-05
4.87061e-06
-5.38154e-05
-6.64646e-05
5.55744e-05
0.000100062
0.00012797
0.000146709
0.000159851
0.000169216
0.000175955
0.000180782
0.000184115
0.000186171
0.00018704
0.000186704
0.000185029
0.000181712
0.000176103
0.000166764
0.000150424
0.00012028
6.64646e-05
)
;

boundaryField
{
    movingWall
    {
        type            calculated;
        value           uniform 0;
    }
    fixedWalls
    {
        type            calculated;
        value           uniform 0;
    }
    frontAndBack
    {
        type            empty;
        value           nonuniform List<scalar> 0();
    }
}


// ************************************************************************* //
