/*--------------------------------*- C++ -*----------------------------------*\
  =========                 |
  \\      /  F ield         | OpenFOAM: The Open Source CFD Toolbox
   \\    /   O peration     | Website:  https://openfoam.org
    \\  /    A nd           | Version:  8
     \\/     M anipulation  |
\*---------------------------------------------------------------------------*/
FoamFile
{
    version     2.0;
    format      ascii;
    class       volVectorField;
    location    "0.1";
    object      U;
}
// * * * * * * * * * * * * * * * * * * * * * * * * * * * * * * * * * * * * * //

dimensions      [0 1 -1 0 0 0 0];

internalField   nonuniform List<vector> 
400
(
(0.0010287 -0.00102579 0)
(0.000357243 0.00058279 0)
(-0.00548428 0.00246725 0)
(-0.0153302 0.00373211 0)
(-0.0274896 0.00435331 0)
(-0.0404241 0.00444008 0)
(-0.0528228 0.00409352 0)
(-0.0635756 0.00338624 0)
(-0.0717384 0.00236902 0)
(-0.0765229 0.00109296 0)
(-0.0773392 -0.00036577 0)
(-0.0738837 -0.00188845 0)
(-0.0662513 -0.00330776 0)
(-0.0550358 -0.00441864 0)
(-0.0413793 -0.00500575 0)
(-0.0269319 -0.00488619 0)
(-0.0136887 -0.00396255 0)
(-0.0036887 -0.00228039 0)
(0.00143289 -0.000155536 0)
(0.0013059 0.00126456 0)
(-0.00049713 -0.000460178 0)
(-0.00752359 0.00749473 0)
(-0.0254157 0.0156939 0)
(-0.051239 0.0213507 0)
(-0.0816009 0.0241376 0)
(-0.113319 0.024298 0)
(-0.143437 0.0221789 0)
(-0.169326 0.0181063 0)
(-0.188741 0.0123841 0)
(-0.199862 0.00535927 0)
(-0.201411 -0.00249596 0)
(-0.192827 -0.0105272 0)
(-0.17447 -0.0178902 0)
(-0.147784 -0.023611 0)
(-0.115353 -0.0267178 0)
(-0.0807726 -0.0264389 0)
(-0.0482492 -0.0224438 0)
(-0.0219373 -0.01509 0)
(-0.00524785 -0.00580208 0)
(0.000164177 0.00159454 0)
(-0.00254858 0.00540325 0)
(-0.0168832 0.0256532 0)
(-0.0469245 0.0442854 0)
(-0.0872301 0.0570374 0)
(-0.132948 0.0631325 0)
(-0.179848 0.0628971 0)
(-0.223921 0.0569996 0)
(-0.261547 0.0461861 0)
(-0.289622 0.0312498 0)
(-0.305651 0.0131402 0)
(-0.307902 -0.00689208 0)
(-0.295636 -0.0271963 0)
(-0.269353 -0.0457259 0)
(-0.230987 -0.0601848 0)
(-0.183988 -0.0683324 0)
(-0.133158 -0.0684334 0)
(-0.0841525 -0.0598002 0)
(-0.0426409 -0.0433223 0)
(-0.0137872 -0.0220487 0)
(-0.00156986 -0.00265959 0)
(-0.00439142 0.016343 0)
(-0.0257035 0.0542879 0)
(-0.0674852 0.0861606 0)
(-0.121388 0.107286 0)
(-0.181011 0.116821 0)
(-0.241266 0.115342 0)
(-0.297409 0.103942 0)
(-0.345168 0.0838871 0)
(-0.380873 0.0565858 0)
(-0.401552 0.0237464 0)
(-0.405102 -0.0124113 0)
(-0.390539 -0.0490114 0)
(-0.358282 -0.0825333 0)
(-0.310415 -0.109045 0)
(-0.250839 -0.124695 0)
(-0.185194 -0.126444 0)
(-0.120359 -0.11297 0)
(-0.0635666 -0.0855189 0)
(-0.0221594 -0.0486437 0)
(-0.00312441 -0.0114742 0)
(-0.00599626 0.0318077 0)
(-0.0337454 0.0926048 0)
(-0.086611 0.140214 0)
(-0.153314 0.170551 0)
(-0.22587 0.183306 0)
(-0.298419 0.179633 0)
(-0.365668 0.16122 0)
(-0.422911 0.129947 0)
(-0.466103 0.0878911 0)
(-0.491909 0.0375606 0)
(-0.497848 -0.0178102 0)
(-0.48255 -0.0740477 0)
(-0.446091 -0.126025 0)
(-0.390355 -0.167946 0)
(-0.319344 -0.193995 0)
(-0.239284 -0.199369 0)
(-0.158254 -0.181589 0)
(-0.0853261 -0.141782 0)
(-0.0305723 -0.0856495 0)
(-0.00455085 -0.0245647 0)
(-0.007425 0.0513507 0)
(-0.0410928 0.13997 0)
(-0.104302 0.205805 0)
(-0.18298 0.246171 0)
(-0.267612 0.261921 0)
(-0.351649 0.255191 0)
(-0.429399 0.228495 0)
(-0.495897 0.18442 0)
(-0.546873 0.125718 0)
(-0.578703 0.0556485 0)
(-0.588497 -0.0216117 0)
(-0.574341 -0.100639 0)
(-0.535677 -0.17466 0)
(-0.473805 -0.235818 0)
(-0.392429 -0.275911 0)
(-0.298076 -0.287719 0)
(-0.199989 -0.266802 0)
(-0.109401 -0.213402 0)
(-0.0397915 -0.133904 0)
(-0.00605822 -0.042031 0)
(-0.00872657 0.0746143 0)
(-0.0478433 0.195719 0)
(-0.120605 0.282155 0)
(-0.210313 0.333332 0)
(-0.306023 0.35189 0)
(-0.400615 0.341402 0)
(-0.488166 0.305466 0)
(-0.563637 0.24747 0)
(-0.622698 0.170802 0)
(-0.661539 0.0793383 0)
(-0.676864 -0.02199 0)
(-0.666077 -0.126689 0)
(-0.627699 -0.226425 0)
(-0.562016 -0.31115 0)
(-0.471919 -0.36983 0)
(-0.36377 -0.391986 0)
(-0.247759 -0.370081 0)
(-0.137512 -0.302307 0)
(-0.0507387 -0.195007 0)
(-0.00788624 -0.0644756 0)
(-0.00993118 0.101298 0)
(-0.0540569 0.259167 0)
(-0.135501 0.368329 0)
(-0.235059 0.430941 0)
(-0.340471 0.452088 0)
(-0.444207 0.437274 0)
(-0.540328 0.391469 0)
(-0.623962 0.318956 0)
(-0.690946 0.223688 0)
(-0.737469 0.109941 0)
(-0.759916 -0.0169026 0)
(-0.754966 -0.149614 0)
(-0.719985 -0.278558 0)
(-0.653786 -0.391528 0)
(-0.557788 -0.474271 0)
(-0.437437 -0.512102 0)
(-0.303287 -0.492868 0)
(-0.171316 -0.410959 0)
(-0.0643876 -0.271383 0)
(-0.0102953 -0.0930412 0)
(-0.0110676 0.131132 0)
(-0.0597959 0.329608 0)
(-0.148956 0.463202 0)
(-0.256834 0.537519 0)
(-0.369954 0.560823 0)
(-0.480589 0.541119 0)
(-0.583072 0.485083 0)
(-0.673024 0.398 0)
(-0.746777 0.284289 0)
(-0.800819 0.148358 0)
(-0.831455 -0.00437544 0)
(-0.83475 -0.166452 0)
(-0.806818 -0.327431 0)
(-0.744591 -0.473253 0)
(-0.647237 -0.586298 0)
(-0.518198 -0.646756 0)
(-0.367259 -0.635992 0)
(-0.212161 -0.542025 0)
(-0.0817371 -0.366209 0)
(-0.0135857 -0.12943 0)
(-0.0122017 0.163905 0)
(-0.0652417 0.406334 0)
(-0.161089 0.565406 0)
(-0.275305 0.651012 0)
(-0.39327 0.675526 0)
(-0.50735 0.650142 0)
(-0.612545 0.58364 0)
(-0.705399 0.482439 0)
(-0.783186 0.351323 0)
(-0.843138 0.194536 0)
(-0.881903 0.0170347 0)
(-0.895269 -0.174161 0)
(-0.878234 -0.368578 0)
(-0.825626 -0.551017 0)
(-0.733599 -0.700803 0)
(-0.602195 -0.792404 0)
(-0.438596 -0.798671 0)
(-0.260776 -0.697701 0)
(-0.103812 -0.483194 0)
(-0.0181396 -0.17594 0)
(-0.0135047 0.199572 0)
(-0.0708941 0.488765 0)
(-0.172454 0.673313 0)
(-0.290475 0.768613 0)
(-0.409263 0.792424 0)
(-0.521716 0.760007 0)
(-0.624052 0.682715 0)
(-0.714295 0.568253 0)
(-0.791222 0.421693 0)
(-0.853388 0.246815 0)
(-0.898388 0.0475944 0)
(-0.92233 -0.170168 0)
(-0.919578 -0.397018 0)
(-0.882998 -0.617828 0)
(-0.805206 -0.809901 0)
(-0.681343 -0.942138 0)
(-0.513432 -0.977126 0)
(-0.316779 -0.87859 0)
(-0.131649 -0.626146 0)
(-0.0244873 -0.235543 0)
(-0.0153722 0.238544 0)
(-0.0778739 0.57673 0)
(-0.184404 0.785066 0)
(-0.302965 0.886534 0)
(-0.416986 0.906161 0)
(-0.520644 0.864386 0)
(-0.61216 0.775638 0)
(-0.691742 0.649053 0)
(-0.760308 0.489907 0)
(-0.818381 0.301261 0)
(-0.865228 0.0856383 0)
(-0.898109 -0.15317 0)
(-0.911621 -0.407954 0)
(-0.897354 -0.665364 0)
(-0.844449 -0.902642 0)
(-0.741952 -1.08456 0)
(-0.583722 -1.16281 0)
(-0.377837 -1.08199 0)
(-0.166205 -0.798196 0)
(-0.0334073 -0.312029 0)
(-0.0186338 0.28222 0)
(-0.0883613 0.670886 0)
(-0.199426 0.898518 0)
(-0.314045 0.999612 0)
(-0.415437 1.00928 0)
(-0.500409 0.954468 0)
(-0.570325 0.85309 0)
(-0.628416 0.715724 0)
(-0.678377 0.547715 0)
(-0.723287 0.351191 0)
(-0.764768 0.126886 0)
(-0.802148 -0.124051 0)
(-0.831448 -0.39784 0)
(-0.844308 -0.684917 0)
(-0.827406 -0.965367 0)
(-0.763471 -1.20306 0)
(-0.635481 -1.3404 0)
(-0.438273 -1.29941 0)
(-0.208044 -1.00038 0)
(-0.0460538 -0.410214 0)
(-0.024916 0.333964 0)
(-0.106158 0.77318 0)
(-0.221141 1.01078 0)
(-0.324787 1.10043 0)
(-0.402079 1.0914 0)
(-0.454858 1.01839 0)
(-0.489235 0.902834 0)
(-0.51236 0.756408 0)
(-0.531183 0.584191 0)
(-0.551645 0.387174 0)
(-0.578117 0.164158 0)
(-0.612702 -0.086635 0)
(-0.65409 -0.365663 0)
(-0.695842 -0.669008 0)
(-0.724384 -0.983088 0)
(-0.717671 -1.27602 0)
(-0.646689 -1.48614 0)
(-0.486781 -1.5132 0)
(-0.256408 -1.22896 0)
(-0.0640125 -0.53603 0)
(-0.0371677 0.400678 0)
(-0.137075 0.886853 0)
(-0.252932 1.1167 0)
(-0.332793 1.17749 0)
(-0.368441 1.13782 0)
(-0.370743 1.0406 0)
(-0.352499 0.909803 0)
(-0.325436 0.757119 0)
(-0.299752 0.586655 0)
(-0.283969 0.397962 0)
(-0.284962 0.187986 0)
(-0.307728 -0.0477608 0)
(-0.354452 -0.314013 0)
(-0.42257 -0.613517 0)
(-0.501545 -0.942197 0)
(-0.568534 -1.27892 0)
(-0.584865 -1.56743 0)
(-0.502589 -1.69288 0)
(-0.306579 -1.47088 0)
(-0.0887928 -0.696007 0)
(-0.0598959 0.4954 0)
(-0.187506 1.01463 0)
(-0.291967 1.20467 0)
(-0.322669 1.2116 0)
(-0.289416 1.12762 0)
(-0.217543 1.00159 0)
(-0.12786 0.857079 0)
(-0.0362494 0.703591 0)
(0.0449302 0.542951 0)
(0.105854 0.372883 0)
(0.138342 0.188717 0)
(0.135336 -0.0159564 0)
(0.0913132 -0.249127 0)
(0.00372392 -0.519594 0)
(-0.123494 -0.834202 0)
(-0.273039 -1.18858 0)
(-0.404234 -1.54499 0)
(-0.449016 -1.7923 0)
(-0.343226 -1.69747 0)
(-0.119137 -0.896584 0)
(-0.0967874 0.642554 0)
(-0.255276 1.15073 0)
(-0.309294 1.24465 0)
(-0.241792 1.1676 0)
(-0.10069 1.03017 0)
(0.0710783 0.878038 0)
(0.246991 0.728291 0)
(0.41018 0.58477 0)
(0.549198 0.44545 0)
(0.655548 0.30588 0)
(0.721943 0.160294 0)
(0.741133 0.00163903 0)
(0.705689 -0.179131 0)
(0.608271 -0.394246 0)
(0.44397 -0.659377 0)
(0.217451 -0.989138 0)
(-0.0423068 -1.37755 0)
(-0.263567 -1.74762 0)
(-0.327081 -1.85477 0)
(-0.142323 -1.14329 0)
(-0.134494 0.877537 0)
(-0.292622 1.25295 0)
(-0.193124 1.16256 0)
(0.0527973 0.98327 0)
(0.34047 0.805395 0)
(0.622787 0.648645 0)
(0.879462 0.515107 0)
(1.10043 0.400202 0)
(1.28038 0.297584 0)
(1.41577 0.201112 0)
(1.50287 0.104997 0)
(1.53668 0.00317234 0)
(1.51009 -0.111788 0)
(1.4131 -0.251108 0)
(1.2329 -0.432717 0)
(0.957275 -0.684084 0)
(0.58627 -1.03573 0)
(0.158928 -1.47995 0)
(-0.169226 -1.83758 0)
(-0.108431 -1.407 0)
(-0.0297441 1.12148 0)
(-0.041483 1.16657 0)
(0.393001 0.856153 0)
(0.879749 0.620891 0)
(1.29494 0.456986 0)
(1.63725 0.338681 0)
(1.91654 0.251606 0)
(2.13942 0.185207 0)
(2.3111 0.131444 0)
(2.43512 0.0845707 0)
(2.51267 0.0403531 0)
(2.54234 -0.00484025 0)
(2.51951 -0.0550983 0)
(2.43512 -0.116652 0)
(2.27361 -0.201176 0)
(2.00988 -0.332693 0)
(1.60574 -0.558266 0)
(1.01578 -0.943182 0)
(0.357173 -1.45523 0)
(0.169519 -1.45238 0)
(1.25801 0.61784 0)
(1.61437 0.546919 0)
(2.25826 0.344992 0)
(2.76088 0.2153 0)
(3.08436 0.138355 0)
(3.30337 0.090599 0)
(3.46046 0.0601253 0)
(3.57417 0.03994 0)
(3.65464 0.0255921 0)
(3.70788 0.0143537 0)
(3.73692 0.00454679 0)
(3.74241 -0.00497322 0)
(3.72291 -0.0153446 0)
(3.67424 -0.0280991 0)
(3.58737 -0.0463577 0)
(3.44307 -0.0777107 0)
(3.19635 -0.141627 0)
(2.7293 -0.281837 0)
(1.96976 -0.545893 0)
(1.43218 -0.674801 0)
)
;

boundaryField
{
    movingWall
    {
        type            fixedValue;
        value           uniform (4.4 0 0);
    }
    fixedWalls
    {
        type            noSlip;
    }
    frontAndBack
    {
        type            empty;
    }
}


// ************************************************************************* //
