/*--------------------------------*- C++ -*----------------------------------*\
  =========                 |
  \\      /  F ield         | OpenFOAM: The Open Source CFD Toolbox
   \\    /   O peration     | Website:  https://openfoam.org
    \\  /    A nd           | Version:  8
     \\/     M anipulation  |
\*---------------------------------------------------------------------------*/
FoamFile
{
    version     2.0;
    format      ascii;
    class       surfaceScalarField;
    location    "0.5";
    object      phi;
}
// * * * * * * * * * * * * * * * * * * * * * * * * * * * * * * * * * * * * * //

dimensions      [0 3 -1 0 0 0 0];

internalField   nonuniform List<scalar> 
760
(
1.95921e-08
-1.96538e-08
-3.19263e-08
5.15184e-08
-1.60889e-07
1.28963e-07
-3.44064e-07
1.83175e-07
-5.53965e-07
2.09902e-07
-7.64818e-07
2.10854e-07
-9.54489e-07
1.89671e-07
-1.10514e-06
1.50647e-07
-1.20332e-06
9.8183e-08
-1.2401e-06
3.67812e-08
-1.21135e-06
-2.87477e-08
-1.11827e-06
-9.30853e-08
-9.67932e-07
-1.50335e-07
-7.73768e-07
-1.94164e-07
-5.55545e-07
-2.18225e-07
-3.3862e-07
-2.16926e-07
-1.51955e-07
-1.86665e-07
-2.44718e-08
-1.27483e-07
2.24478e-08
-4.69186e-08
2.24486e-08
-4.86893e-08
2.90355e-08
-2.54253e-07
2.57082e-07
-6.09401e-07
4.84111e-07
-1.071e-06
6.44778e-07
-1.58419e-06
7.23085e-07
-2.09361e-06
7.20277e-07
-2.54934e-06
6.45405e-07
-2.90985e-06
5.11152e-07
-3.14345e-06
3.31786e-07
-3.22931e-06
1.22637e-07
-3.15834e-06
-9.97182e-08
-2.93426e-06
-3.17162e-07
-2.57452e-06
-5.10073e-07
-2.11068e-06
-6.58004e-07
-1.58768e-06
-7.41224e-07
-1.06123e-06
-7.43377e-07
-5.92464e-07
-6.55432e-07
-2.39142e-07
-4.80806e-07
-4.19857e-08
-2.44075e-07
-1.95363e-08
-1.30299e-07
1.59334e-07
-5.02178e-07
6.28962e-07
-1.07269e-06
1.05462e-06
-1.77667e-06
1.34875e-06
-2.53905e-06
1.48547e-06
-3.28508e-06
1.46631e-06
-3.94696e-06
1.30729e-06
-4.46787e-06
1.03207e-06
-4.80432e-06
6.6824e-07
-4.92772e-06
2.46034e-07
-4.82573e-06
-2.01708e-07
-4.50361e-06
-6.39278e-07
-3.98531e-06
-1.02838e-06
-3.31377e-06
-1.32954e-06
-2.54983e-06
-1.50517e-06
-1.76863e-06
-1.52458e-06
-1.05287e-06
-1.37119e-06
-4.82445e-07
-1.05124e-06
-1.20685e-07
-6.05836e-07
-1.40221e-07
-2.0478e-07
3.64113e-07
-7.38254e-07
1.16244e-06
-1.51614e-06
1.83251e-06
-2.44582e-06
2.27843e-06
-3.4321e-06
2.47174e-06
-4.38439e-06
2.4186e-06
-5.22216e-06
2.14506e-06
-5.87849e-06
1.6884e-06
-6.30228e-06
1.09203e-06
-6.4598e-06
4.03561e-07
-6.33617e-06
-3.25343e-07
-5.93678e-06
-1.03867e-06
-5.28873e-06
-1.67644e-06
-4.44149e-06
-2.17677e-06
-3.46624e-06
-2.48042e-06
-2.45257e-06
-2.53824e-06
-1.50201e-06
-2.32175e-06
-7.17918e-07
-1.83533e-06
-1.9319e-07
-1.13056e-06
-3.33411e-07
-2.72583e-07
6.36696e-07
-9.60831e-07
1.85068e-06
-1.93928e-06
2.81096e-06
-3.08502e-06
3.42417e-06
-4.28166e-06
3.66839e-06
-5.42404e-06
3.56097e-06
-6.42166e-06
3.14268e-06
-7.20077e-06
2.46751e-06
-7.70548e-06
1.59674e-06
-7.89862e-06
5.96697e-07
-7.76282e-06
-4.61138e-07
-7.30209e-06
-1.49939e-06
-6.54368e-06
-2.43485e-06
-5.53976e-06
-3.18069e-06
-4.36811e-06
-3.65208e-06
-3.13036e-06
-3.77598e-06
-1.94695e-06
-3.50516e-06
-9.47964e-07
-2.83432e-06
-2.61089e-07
-1.81744e-06
-5.945e-07
-3.36969e-07
9.73665e-07
-1.17577e-06
2.68949e-06
-2.35028e-06
3.98546e-06
-3.70571e-06
4.77961e-06
-5.10367e-06
5.06635e-06
-6.42526e-06
4.88256e-06
-7.57217e-06
4.28958e-06
-8.46644e-06
3.36179e-06
-9.04973e-06
2.18003e-06
-9.28275e-06
8.29714e-07
-9.14558e-06
-5.98308e-07
-8.63916e-06
-2.00582e-06
-7.78787e-06
-3.28614e-06
-6.64285e-06
-4.32571e-06
-5.28495e-06
-5.00998e-06
-3.82585e-06
-5.23509e-06
-2.40544e-06
-4.92556e-06
-1.18408e-06
-4.05567e-06
-3.29542e-07
-2.67198e-06
-9.24042e-07
-4.0118e-07
1.37484e-06
-1.39002e-06
3.67833e-06
-2.75817e-06
5.35361e-06
-4.31733e-06
6.33876e-06
-5.90681e-06
6.65584e-06
-7.39538e-06
6.37113e-06
-8.67955e-06
5.57375e-06
-9.68028e-06
4.36252e-06
-1.03395e-05
2.83923e-06
-1.06174e-05
1.1076e-06
-1.04915e-05
-7.24134e-07
-9.95817e-06
-2.53918e-06
-9.03544e-06
-4.20887e-06
-7.76892e-06
-5.59223e-06
-6.23794e-06
-6.54096e-06
-4.56093e-06
-6.9121e-06
-2.89684e-06
-6.58965e-06
-1.43973e-06
-5.51278e-06
-4.0412e-07
-3.70759e-06
-1.32816e-06
-4.68105e-07
1.84295e-06
-1.60989e-06
4.82011e-06
-3.17003e-06
6.91376e-06
-4.92408e-06
8.09281e-06
-6.68933e-06
8.42109e-06
-8.32491e-06
8.00671e-06
-9.72628e-06
6.97513e-06
-1.08178e-05
5.45399e-06
-1.15453e-05
3.56679e-06
-1.18712e-05
1.43352e-06
-1.17713e-05
-8.24056e-07
-1.12354e-05
-3.07511e-06
-1.02716e-05
-5.1727e-06
-8.91403e-06
-6.94976e-06
-7.23381e-06
-8.22117e-06
-5.35006e-06
-8.79585e-06
-3.438e-06
-8.50172e-06
-1.728e-06
-7.22277e-06
-4.90306e-07
-4.94529e-06
-1.81847e-06
-5.40556e-07
2.38351e-06
-1.84112e-06
6.12067e-06
-3.59027e-06
8.66291e-06
-5.52329e-06
1.00258e-05
-7.43666e-06
1.03345e-05
-9.18464e-06
9.75469e-06
-1.0668e-05
8.45854e-06
-1.18211e-05
6.60706e-06
-1.25996e-05
4.34524e-06
-1.29717e-05
1.8056e-06
-1.2913e-05
-8.82691e-07
-1.24061e-05
-3.58201e-06
-1.14448e-05
-6.13407e-06
-1.00444e-05
-8.35013e-06
-8.25793e-06
-1.00076e-05
-6.1951e-06
-1.08587e-05
-4.0403e-06
-1.06565e-05
-2.06075e-06
-9.20232e-06
-5.9362e-07
-6.41242e-06
-2.41209e-06
-6.22179e-07
3.00569e-06
-2.09025e-06
7.58875e-06
-4.02127e-06
1.05939e-05
-6.10459e-06
1.21092e-05
-8.11893e-06
1.23488e-05
-9.92172e-06
1.15575e-05
-1.14289e-05
9.9657e-06
-1.25939e-05
7.77208e-06
-1.339e-05
5.14136e-06
-1.37971e-05
2.21271e-06
-1.37938e-05
-8.85999e-07
-1.33551e-05
-4.02075e-06
-1.24564e-05
-7.03271e-06
-1.1086e-05
-9.72058e-06
-9.26539e-06
-1.18282e-05
-7.07912e-06
-1.3045e-05
-4.70697e-06
-1.30287e-05
-2.4485e-06
-1.14608e-05
-7.20258e-07
-8.14066e-06
-3.13234e-06
-7.19066e-07
3.72475e-06
-2.36692e-06
9.2366e-06
-4.46438e-06
1.26914e-05
-6.64834e-06
1.42931e-05
-8.68684e-06
1.43873e-05
-1.04538e-05
1.33244e-05
-1.18943e-05
1.14062e-05
-1.29936e-05
8.87136e-06
-1.37522e-05
5.90003e-06
-1.41691e-05
2.62959e-06
-1.42304e-05
-8.24689e-07
-1.39052e-05
-4.34593e-06
-1.31481e-05
-7.78987e-06
-1.1911e-05
-1.09576e-05
-1.01685e-05
-1.35707e-05
-7.95736e-06
-1.52561e-05
-5.42881e-06
-1.55572e-05
-2.9004e-06
-1.39892e-05
-8.78275e-07
-1.01628e-05
-4.01062e-06
-8.42458e-07
4.56721e-06
-2.68694e-06
1.10811e-05
-4.91967e-06
1.49241e-05
-7.12073e-06
1.64942e-05
-9.06311e-06
1.63297e-05
-1.06585e-05
1.49197e-05
-1.19008e-05
1.26485e-05
-1.2822e-05
9.79257e-06
-1.34611e-05
6.53915e-06
-1.38438e-05
3.01234e-06
-1.397e-05
-6.98576e-07
-1.38063e-05
-4.50955e-06
-1.32867e-05
-8.30954e-06
-1.23207e-05
-1.19236e-05
-1.08193e-05
-1.50721e-05
-8.7428e-06
-1.73326e-05
-6.1764e-06
-1.81236e-05
-3.42346e-06
-1.67421e-05
-1.07954e-06
-1.25067e-05
-5.09016e-06
-1.01312e-06
5.58033e-06
-3.07474e-06
1.31427e-05
-5.38053e-06
1.72299e-05
-7.46037e-06
1.8574e-05
-9.12432e-06
1.79936e-05
-1.03549e-05
1.61503e-05
-1.12197e-05
1.35133e-05
-1.18134e-05
1.03862e-05
-1.22227e-05
6.94844e-06
-1.25066e-05
3.2963e-06
-1.26843e-05
-5.20915e-07
-1.27265e-05
-4.46734e-06
-1.25511e-05
-8.48493e-06
-1.20254e-05
-1.24493e-05
-1.0985e-05
-1.61125e-05
-9.28265e-06
-1.9035e-05
-6.88453e-06
-2.05217e-05
-4.01876e-06
-1.96079e-05
-1.34276e-06
-1.51827e-05
-6.43292e-06
-1.26788e-06
6.84821e-06
-3.56114e-06
1.5436e-05
-5.81419e-06
1.94829e-05
-7.54549e-06
2.03053e-05
-8.66382e-06
1.9112e-05
-9.26997e-06
1.67565e-05
-9.53208e-06
1.37754e-05
-9.61865e-06
1.04728e-05
-9.66721e-06
6.997e-06
-9.77089e-06
3.39998e-06
-9.97117e-06
-3.20635e-07
-1.02504e-05
-4.18811e-06
-1.05223e-05
-8.21301e-06
-1.06234e-05
-1.23482e-05
-1.03153e-05
-1.64207e-05
-9.31972e-06
-2.00305e-05
-7.42064e-06
-2.24208e-05
-4.66917e-06
-2.23594e-05
-1.69708e-06
-1.81548e-05
-8.13e-06
-1.66553e-06
8.51374e-06
-4.16193e-06
1.79324e-05
-6.1059e-06
2.14269e-05
-7.12081e-06
2.13202e-05
-7.32063e-06
1.93118e-05
-6.98172e-06
1.64176e-05
-6.39097e-06
1.31847e-05
-5.78709e-06
9.86889e-06
-5.34676e-06
6.55667e-06
-5.18698e-06
3.24021e-06
-5.36833e-06
-1.39288e-07
-5.89166e-06
-3.66478e-06
-6.68528e-06
-7.41939e-06
-7.58276e-06
-1.14507e-05
-8.29914e-06
-1.57043e-05
-8.42921e-06
-1.99005e-05
-7.52006e-06
-2.333e-05
-5.30117e-06
-2.45783e-05
-2.18e-06
-2.1276e-05
-1.031e-05
-2.27325e-06
1.0787e-05
-4.79131e-06
2.04504e-05
-5.91668e-06
2.25523e-05
-5.64771e-06
2.10512e-05
-4.45627e-06
1.81203e-05
-2.83569e-06
1.4797e-05
-1.17637e-06
1.15254e-05
2.47694e-07
8.44483e-06
1.25571e-06
5.54865e-06
1.73295e-06
2.76297e-06
1.61287e-06
-1.92098e-08
8.73336e-07
-2.92525e-06
-4.51328e-07
-6.09472e-06
-2.23727e-06
-9.66475e-06
-4.21726e-06
-1.37243e-05
-5.91977e-06
-1.81979e-05
-6.65524e-06
-2.25945e-05
-5.67641e-06
-2.55571e-05
-2.8037e-06
-2.41487e-05
-1.31137e-05
-3.07293e-06
1.38599e-05
-4.99166e-06
2.23692e-05
-4.35483e-06
2.19155e-05
-2.02766e-06
1.87241e-05
1.02988e-06
1.50628e-05
4.15315e-06
1.16738e-05
6.93811e-06
8.7404e-06
9.15829e-06
6.22466e-06
1.06905e-05
4.01646e-06
1.14631e-05
1.99031e-06
1.14262e-05
1.7695e-08
1.05414e-05
-2.04039e-06
8.78646e-06
-4.33981e-06
6.18947e-06
-7.06775e-06
2.89927e-06
-1.04341e-05
-6.91821e-07
-1.46069e-05
-3.79201e-06
-1.94943e-05
-5.1286e-06
-2.42205e-05
-3.42596e-06
-2.58513e-05
-1.65397e-05
-3.62634e-06
1.74863e-05
-3.20467e-06
2.19475e-05
7.06386e-07
1.80044e-05
5.84033e-06
1.35901e-05
1.09127e-05
9.99046e-06
1.5355e-05
7.23145e-06
1.89521e-05
5.14331e-06
2.16499e-05
3.52682e-06
2.34534e-05
2.21299e-06
2.43732e-05
1.07047e-06
2.4399e-05
-8.10707e-09
2.34884e-05
-1.1298e-06
2.1562e-05
-2.4134e-06
1.85186e-05
-4.02428e-06
1.42852e-05
-6.20078e-06
8.95001e-06
-9.27164e-06
3.04171e-06
-1.3586e-05
-1.98245e-06
-1.91963e-05
-3.39907e-06
-2.44347e-05
-1.99387e-05
-1.26809e-06
1.87544e-05
5.34356e-06
1.53358e-05
1.39025e-05
9.44544e-06
2.15328e-05
5.95983e-06
2.76546e-05
3.86867e-06
3.23402e-05
2.54589e-06
3.58002e-05
1.68325e-06
3.82357e-05
1.09133e-06
3.97962e-05
6.52467e-07
4.05724e-05
2.94351e-07
4.05965e-05
-3.2223e-08
3.9836e-05
-3.6935e-07
3.81883e-05
-7.65683e-07
3.54598e-05
-1.29573e-06
3.13506e-05
-2.09162e-06
2.54781e-05
-3.39914e-06
1.75626e-05
-5.6705e-06
8.07346e-06
-9.70718e-06
1.53374e-08
-1.63766e-05
-1.99234e-05
1.87544e-05
3.40902e-05
4.35356e-05
4.94955e-05
5.33641e-05
5.591e-05
5.75933e-05
5.86846e-05
5.93371e-05
5.96314e-05
5.95992e-05
5.92298e-05
5.84642e-05
5.71684e-05
5.50768e-05
5.16777e-05
4.60072e-05
3.63e-05
1.99234e-05
)
;

boundaryField
{
    movingWall
    {
        type            calculated;
        value           uniform 0;
    }
    fixedWalls
    {
        type            calculated;
        value           uniform 0;
    }
    frontAndBack
    {
        type            empty;
        value           nonuniform List<scalar> 0();
    }
}


// ************************************************************************* //
