/*--------------------------------*- C++ -*----------------------------------*\
  =========                 |
  \\      /  F ield         | OpenFOAM: The Open Source CFD Toolbox
   \\    /   O peration     | Website:  https://openfoam.org
    \\  /    A nd           | Version:  8
     \\/     M anipulation  |
\*---------------------------------------------------------------------------*/
FoamFile
{
    version     2.0;
    format      ascii;
    class       volScalarField;
    location    "0.1";
    object      p;
}
// * * * * * * * * * * * * * * * * * * * * * * * * * * * * * * * * * * * * * //

dimensions      [0 2 -2 0 0 0 0];

internalField   nonuniform List<scalar> 
400
(
1.10486e-07
-0.0160468
-0.035227
-0.0495852
-0.0547607
-0.0488837
-0.0317759
-0.00440434
0.0314311
0.0732289
0.117863
0.161707
0.200873
0.231608
0.250837
0.256822
0.249854
0.232874
0.211885
0.195913
0.0159439
-0.00059918
-0.0155605
-0.0252965
-0.0279044
-0.0221009
-0.00765655
0.0147808
0.0438909
0.0777585
0.113931
0.149532
0.181475
0.206796
0.2231
0.229073
0.224993
0.21299
0.196446
0.180149
0.0363265
0.0134653
-0.00260995
-0.0114186
-0.0134663
-0.008178
0.00449402
0.0239818
0.0492358
0.0787202
0.110408
0.141847
0.170326
0.193168
0.208125
0.213824
0.210262
0.198842
0.180734
0.157993
0.0538965
0.0225069
0.0026848
-0.00728058
-0.00994988
-0.00538925
0.00620306
0.0242273
0.0477804
0.075566
0.105805
0.136235
0.164224
0.187031
0.202174
0.207898
0.203738
0.190479
0.167599
0.135631
0.0635807
0.0234402
-0.000788999
-0.0125401
-0.0161531
-0.0122291
-0.0011789
0.0163621
0.0396099
0.0674576
0.0982973
0.129943
0.159687
0.184518
0.201487
0.20822
0.203632
0.1879
0.159075
0.116788
0.0614867
0.0128209
-0.015884
-0.0295222
-0.0340156
-0.0304105
-0.0192748
-0.00124663
0.0230212
0.0526045
0.0860386
0.121157
0.155071
0.184342
0.205332
0.214791
0.210789
0.192786
0.157448
0.103844
0.0442695
-0.0126368
-0.0456211
-0.0609267
-0.0659707
-0.0621934
-0.0502689
-0.0307875
-0.00422545
0.0287157
0.0667445
0.107717
0.148523
0.185169
0.213109
0.227903
0.226437
0.207165
0.165112
0.0988593
0.00869457
-0.0562026
-0.0930835
-0.10956
-0.11458
-0.109985
-0.0965211
-0.0746724
-0.0446592
-0.00686475
0.0376939
0.0869835
0.137706
0.185259
0.223973
0.247843
0.252075
0.233575
0.18508
0.104458
-0.048633
-0.121357
-0.161568
-0.178402
-0.182526
-0.176262
-0.160432
-0.135352
-0.100874
-0.0569107
-0.00402254
0.0560561
0.119991
0.182608
0.236962
0.275059
0.28975
0.275523
0.221646
0.124654
-0.131461
-0.211978
-0.254648
-0.270503
-0.272354
-0.2632
-0.243983
-0.214792
-0.174972
-0.123755
-0.060979
0.0122243
0.0927831
0.175159
0.25111
0.31026
0.342275
0.337943
0.281138
0.165801
-0.244178
-0.332617
-0.376235
-0.388785
-0.386053
-0.372075
-0.348007
-0.313653
-0.267678
-0.208374
-0.13451
-0.0461952
0.054241
0.161341
0.265808
0.35467
0.413537
0.427776
0.37291
0.237885
-0.392473
-0.489032
-0.530712
-0.535749
-0.524451
-0.502446
-0.471223
-0.43021
-0.377172
-0.309146
-0.223432
-0.118586
0.00445399
0.141059
0.281539
0.410549
0.508984
0.554739
0.51074
0.356555
-0.584893
-0.68923
-0.723135
-0.713027
-0.686374
-0.651109
-0.609083
-0.559131
-0.497798
-0.420489
-0.32259
-0.20053
-0.053061
0.11707
0.300997
0.482
0.636298
0.732329
0.714851
0.546547
-0.836485
-0.945383
-0.959391
-0.920557
-0.867454
-0.810848
-0.752598
-0.690417
-0.619089
-0.5319
-0.421851
-0.282682
-0.11013
0.0962192
0.330159
0.575736
0.80598
0.978896
1.01496
0.848047
-1.17693
-1.27702
-1.2457
-1.15479
-1.05826
-0.968942
-0.887353
-0.808886
-0.725665
-0.62811
-0.506389
-0.351051
-0.154085
0.0893993
0.378201
0.700697
1.03073
1.3178
1.45403
1.3279
-1.66648
-1.71514
-1.58666
-1.40573
-1.24202
-1.10596
-0.993413
-0.895043
-0.798939
-0.691381
-0.559388
-0.389919
-0.170662
0.108889
0.455142
0.865775
1.32289
1.77492
2.08986
2.09415
-2.42719
-2.30535
-1.98207
-1.65565
-1.39488
-1.1975
-1.04849
-0.929578
-0.821842
-0.707088
-0.568206
-0.388436
-0.150876
0.161643
0.565771
1.07477
1.68977
2.37281
2.99378
3.31862
-3.75281
-3.10436
-2.40315
-1.8634
-1.47828
-1.21218
-1.02973
-0.897165
-0.785664
-0.671358
-0.533297
-0.351324
-0.104195
0.232509
0.688564
1.30033
2.10204
3.10019
4.26001
5.36282
-6.45993
-4.13127
-2.65502
-1.85619
-1.37139
-1.07164
-0.890244
-0.773564
-0.682569
-0.589335
-0.471334
-0.307265
-0.0741191
0.257397
0.729197
1.40546
2.37551
3.77171
5.9497
9.09347
-11.3804
-5.12781
-2.34731
-1.37429
-0.929079
-0.701213
-0.595819
-0.548437
-0.517349
-0.476533
-0.406608
-0.289814
-0.106037
0.170959
0.583203
1.20882
2.20197
3.93529
7.61762
14.7794
)
;

boundaryField
{
    movingWall
    {
        type            zeroGradient;
    }
    fixedWalls
    {
        type            zeroGradient;
    }
    frontAndBack
    {
        type            empty;
    }
}


// ************************************************************************* //
