/*--------------------------------*- C++ -*----------------------------------*\
  =========                 |
  \\      /  F ield         | OpenFOAM: The Open Source CFD Toolbox
   \\    /   O peration     | Website:  https://openfoam.org
    \\  /    A nd           | Version:  8
     \\/     M anipulation  |
\*---------------------------------------------------------------------------*/
FoamFile
{
    version     2.0;
    format      ascii;
    class       volVectorField;
    location    "0.1";
    object      U;
}
// * * * * * * * * * * * * * * * * * * * * * * * * * * * * * * * * * * * * * //

dimensions      [0 1 -1 0 0 0 0];

internalField   nonuniform List<vector> 
400
(
(0.00067096 -0.000665554 0)
(0.00028841 0.000348351 0)
(-0.00339853 0.00156872 0)
(-0.00970314 0.00240552 0)
(-0.017543 0.0028186 0)
(-0.0258886 0.00286577 0)
(-0.0338449 0.00261381 0)
(-0.0406644 0.00212123 0)
(-0.0457414 0.00143709 0)
(-0.0486081 0.000609074 0)
(-0.0489514 -0.000306042 0)
(-0.046647 -0.00123465 0)
(-0.0418052 -0.00208322 0)
(-0.0348122 -0.00274186 0)
(-0.0263517 -0.00309489 0)
(-0.0173881 -0.00303872 0)
(-0.00909346 -0.00250704 0)
(-0.00270401 -0.00150285 0)
(0.000713221 -0.00018212 0)
(0.000782684 0.000761581 0)
(-0.000274368 -0.000359343 0)
(-0.00464284 0.00467708 0)
(-0.0159652 0.00998423 0)
(-0.03246 0.013707 0)
(-0.0519486 0.0155453 0)
(-0.0723128 0.0156105 0)
(-0.0915635 0.0141338 0)
(-0.107959 0.0113736 0)
(-0.120068 0.00759128 0)
(-0.126799 0.00306845 0)
(-0.127455 -0.00186323 0)
(-0.121807 -0.00679852 0)
(-0.110171 -0.0112549 0)
(-0.0934822 -0.0146967 0)
(-0.0733043 -0.016591 0)
(-0.051769 -0.016497 0)
(-0.031373 -0.0141858 0)
(-0.0146348 -0.00978243 0)
(-0.00375339 -0.00402472 0)
(-1.19684e-05 0.000808551 0)
(-0.00154947 0.00326004 0)
(-0.0105106 0.0161032 0)
(-0.0295349 0.0281663 0)
(-0.0552627 0.0365425 0)
(-0.084563 0.0405498 0)
(-0.114614 0.0403105 0)
(-0.142728 0.0362768 0)
(-0.166518 0.0290349 0)
(-0.18401 0.0192366 0)
(-0.193707 0.00761468 0)
(-0.194658 -0.00497057 0)
(-0.18656 -0.017495 0)
(-0.169852 -0.0287742 0)
(-0.1458 -0.0375276 0)
(-0.116512 -0.0425141 0)
(-0.0848553 -0.0427422 0)
(-0.0541845 -0.0377429 0)
(-0.0279108 -0.0278739 0)
(-0.00930626 -0.0147241 0)
(-0.00116337 -0.00218008 0)
(-0.00268734 0.0100467 0)
(-0.0160404 0.0341479 0)
(-0.0425462 0.0548088 0)
(-0.076997 0.0686884 0)
(-0.115232 0.0749482 0)
(-0.153831 0.0738276 0)
(-0.189599 0.0660783 0)
(-0.219717 0.0526974 0)
(-0.241856 0.0348252 0)
(-0.254239 0.0137614 0)
(-0.255724 -0.00897291 0)
(-0.245903 -0.0315855 0)
(-0.225226 -0.0520237 0)
(-0.195103 -0.0680806 0)
(-0.157957 -0.0776193 0)
(-0.117162 -0.0789193 0)
(-0.0767776 -0.071124 0)
(-0.0410945 -0.0547127 0)
(-0.0146686 -0.0320039 0)
(-0.00218806 -0.008135 0)
(-0.00368264 0.019663 0)
(-0.021136 0.0583581 0)
(-0.0548091 0.0892849 0)
(-0.0975943 0.109239 0)
(-0.144245 0.117588 0)
(-0.190772 0.114904 0)
(-0.233575 0.102368 0)
(-0.269533 0.0814708 0)
(-0.296081 0.0539006 0)
(-0.311245 0.0215724 0)
(-0.313702 -0.013283 0)
(-0.302887 -0.0480447 0)
(-0.279134 -0.0797049 0)
(-0.243823 -0.105003 0)
(-0.199505 -0.120725 0)
(-0.149925 -0.124192 0)
(-0.0998096 -0.113893 0)
(-0.0544445 -0.0901541 0)
(-0.0199287 -0.0557552 0)
(-0.00311537 -0.0168275 0)
(-0.00459155 0.0318712 0)
(-0.0259215 0.0884459 0)
(-0.0664698 0.131334 0)
(-0.117251 0.157915 0)
(-0.171921 0.168145 0)
(-0.225945 0.163206 0)
(-0.275395 0.144884 0)
(-0.31695 0.115258 0)
(-0.347906 0.0766022 0)
(-0.366149 0.0314499 0)
(-0.370178 -0.0172707 0)
(-0.359204 -0.0661132 0)
(-0.333306 -0.111078 0)
(-0.293653 -0.147742 0)
(-0.24273 -0.171606 0)
(-0.184511 -0.178712 0)
(-0.124364 -0.166496 0)
(-0.068709 -0.134714 0)
(-0.0254888 -0.0862843 0)
(-0.00406184 -0.0282416 0)
(-0.00546391 0.0465326 0)
(-0.0305359 0.124179 0)
(-0.0777139 0.180683 0)
(-0.136145 0.214393 0)
(-0.198394 0.22626 0)
(-0.259427 0.218392 0)
(-0.315087 0.193386 0)
(-0.361963 0.154012 0)
(-0.397321 0.103151 0)
(-0.41898 0.0439115 0)
(-0.425278 -0.020156 0)
(-0.415139 -0.0848524 0)
(-0.388251 -0.145213 0)
(-0.345357 -0.195577 0)
(-0.288633 -0.229934 0)
(-0.222061 -0.242644 0)
(-0.151552 -0.229537 0)
(-0.0847564 -0.189212 0)
(-0.0318235 -0.124275 0)
(-0.00515529 -0.0426302 0)
(-0.00633896 0.0635895 0)
(-0.0350965 0.165388 0)
(-0.0886844 0.237031 0)
(-0.154328 0.278232 0)
(-0.223508 0.291387 0)
(-0.290782 0.279898 0)
(-0.351893 0.247415 0)
(-0.403505 0.197508 0)
(-0.443004 0.13366 0)
(-0.468262 0.059468 0)
(-0.477511 -0.0210397 0)
(-0.469363 -0.103069 0)
(-0.442985 -0.180806 0)
(-0.398454 -0.24735 0)
(-0.337304 -0.294977 0)
(-0.263175 -0.315901 0)
(-0.182257 -0.303621 0)
(-0.103418 -0.254726 0)
(-0.0394223 -0.17082 0)
(-0.00652879 -0.0605247 0)
(-0.00725519 0.0830489 0)
(-0.039717 0.211961 0)
(-0.0994902 0.300015 0)
(-0.171718 0.348777 0)
(-0.246799 0.362637 0)
(-0.319014 0.346741 0)
(-0.384216 0.306066 0)
(-0.439373 0.245104 0)
(-0.482216 0.167917 0)
(-0.510855 0.0784543 0)
(-0.523546 -0.018997 0)
(-0.518627 -0.119309 0)
(-0.494652 -0.216059 0)
(-0.450783 -0.301233 0)
(-0.387496 -0.365288 0)
(-0.307548 -0.397814 0)
(-0.216896 -0.389082 0)
(-0.125384 -0.332456 0)
(-0.04878 -0.227386 0)
(-0.00833061 -0.082737 0)
(-0.0082735 0.104993 0)
(-0.0445721 0.263837 0)
(-0.110287 0.369148 0)
(-0.188164 0.425012 0)
(-0.267514 0.438555 0)
(-0.342559 0.417227 0)
(-0.409567 0.367674 0)
(-0.466143 0.295431 0)
(-0.510669 0.205097 0)
(-0.541771 0.100786 0)
(-0.557951 -0.0132453 0)
(-0.557405 -0.131913 0)
(-0.53807 -0.248586 0)
(-0.497982 -0.354471 0)
(-0.436081 -0.438287 0)
(-0.353509 -0.486635 0)
(-0.255123 -0.485526 0)
(-0.151097 -0.423421 0)
(-0.0604132 -0.295721 0)
(-0.0107473 -0.110375 0)
(-0.00951952 0.129646 0)
(-0.0500106 0.321053 0)
(-0.121414 0.443747 0)
(-0.203536 0.505365 0)
(-0.284635 0.516832 0)
(-0.359236 0.488633 0)
(-0.424484 0.429471 0)
(-0.479059 0.346049 0)
(-0.522403 0.243425 0)
(-0.554021 0.125655 0)
(-0.572974 -0.00339926 0)
(-0.577575 -0.13918 0)
(-0.565273 -0.275433 0)
(-0.53289 -0.403181 0)
(-0.477385 -0.509832 0)
(-0.397394 -0.578908 0)
(-0.295386 -0.591159 0)
(-0.180584 -0.527967 0)
(-0.074888 -0.377682 0)
(-0.0140433 -0.144889 0)
(-0.0112584 0.157533 0)
(-0.0567291 0.383864 0)
(-0.133551 0.522843 0)
(-0.217774 0.587443 0)
(-0.296791 0.59395 0)
(-0.366078 0.55682 0)
(-0.424322 0.487221 0)
(-0.471855 0.393101 0)
(-0.509654 0.279849 0)
(-0.538511 0.151194 0)
(-0.558437 0.0102009 0)
(-0.568229 -0.139656 0)
(-0.565168 -0.293245 0)
(-0.544992 -0.442308 0)
(-0.502431 -0.573833 0)
(-0.432719 -0.668735 0)
(-0.334256 -0.701861 0)
(-0.213136 -0.644993 0)
(-0.0928413 -0.474941 0)
(-0.0186272 -0.188175 0)
(-0.0140278 0.189808 0)
(-0.0660189 0.452895 0)
(-0.14782 0.604974 0)
(-0.230705 0.667582 0)
(-0.301836 0.664677 0)
(-0.358782 0.615785 0)
(-0.402733 0.534867 0)
(-0.436353 0.431044 0)
(-0.462626 0.309796 0)
(-0.484001 0.174209 0)
(-0.501806 0.0261561 0)
(-0.515754 -0.132526 0)
(-0.523465 -0.298645 0)
(-0.520062 -0.465821 0)
(-0.498209 -0.622076 0)
(-0.449152 -0.747058 0)
(-0.365389 -0.809984 0)
(-0.246693 -0.770725 0)
(-0.114946 -0.588426 0)
(-0.0251571 -0.242764 0)
(-0.0188635 0.228826 0)
(-0.0800559 0.529251 0)
(-0.165587 0.687615 0)
(-0.241206 0.74002 0)
(-0.295596 0.72133 0)
(-0.330361 0.657184 0)
(-0.350465 0.56431 0)
(-0.361581 0.4526 0)
(-0.369012 0.327189 0)
(-0.377019 0.190141 0)
(-0.388432 0.0418055 0)
(-0.404248 -0.118037 0)
(-0.423042 -0.288836 0)
(-0.440183 -0.467326 0)
(-0.447104 -0.644502 0)
(-0.431288 -0.801208 0)
(-0.377953 -0.902979 0)
(-0.276622 -0.896868 0)
(-0.141634 -0.717184 0)
(-0.0346607 -0.312063 0)
(-0.0275954 0.279044 0)
(-0.101963 0.614171 0)
(-0.187203 0.765806 0)
(-0.244728 0.795453 0)
(-0.268852 0.752816 0)
(-0.268228 0.669976 0)
(-0.252958 0.565559 0)
(-0.232068 0.449228 0)
(-0.213029 0.325015 0)
(-0.201608 0.19352 0)
(-0.201912 0.0533846 0)
(-0.216304 -0.097784 0)
(-0.244874 -0.262396 0)
(-0.284393 -0.441236 0)
(-0.326756 -0.630335 0)
(-0.357317 -0.815269 0)
(-0.354217 -0.962286 0)
(-0.293224 -1.00804 0)
(-0.171936 -0.856114 0)
(-0.0484514 -0.400442 0)
(-0.0428285 0.348451 0)
(-0.134413 0.707267 0)
(-0.207575 0.828973 0)
(-0.226972 0.818613 0)
(-0.200917 0.743621 0)
(-0.14874 0.640658 0)
(-0.0862475 0.527797 0)
(-0.0251277 0.412576 0)
(0.0260602 0.296808 0)
(0.0611137 0.179242 0)
(0.07548 0.0568521 0)
(0.0658478 -0.0745756 0)
(0.0304082 -0.220036 0)
(-0.0301711 -0.384461 0)
(-0.110653 -0.570343 0)
(-0.197782 -0.771909 0)
(-0.265937 -0.963177 0)
(-0.276708 -1.07871 0)
(-0.199757 -0.992071 0)
(-0.0669456 -0.513327 0)
(-0.0658741 0.451562 0)
(-0.172789 0.800674 0)
(-0.203114 0.853153 0)
(-0.149532 0.783637 0)
(-0.047672 0.672754 0)
(0.071352 0.554545 0)
(0.188463 0.44175 0)
(0.292128 0.337155 0)
(0.375211 0.239244 0)
(0.433023 0.144769 0)
(0.46198 0.0495135 0)
(0.458821 -0.0516272 0)
(0.42041 -0.164957 0)
(0.344238 -0.298259 0)
(0.230266 -0.460107 0)
(0.0852747 -0.655937 0)
(-0.0692551 -0.876059 0)
(-0.188094 -1.06952 0)
(-0.204707 -1.09695 0)
(-0.0848927 -0.657786 0)
(-0.0848734 0.606853 0)
(-0.180754 0.860767 0)
(-0.0984318 0.787298 0)
(0.0783338 0.650517 0)
(0.276692 0.516811 0)
(0.464546 0.401386 0)
(0.628606 0.305478 0)
(0.763212 0.225316 0)
(0.866266 0.156037 0)
(0.936901 0.0930591 0)
(0.974065 0.032057 0)
(0.975749 -0.0315288 0)
(0.93849 -0.103297 0)
(0.857129 -0.191051 0)
(0.725377 -0.306077 0)
(0.538833 -0.463154 0)
(0.302423 -0.674353 0)
(0.0465801 -0.925932 0)
(-0.131829 -1.10965 0)
(-0.0750958 -0.826208 0)
(-0.000711926 0.747185 0)
(0.00860204 0.781032 0)
(0.310827 0.568149 0)
(0.640485 0.4013 0)
(0.91388 0.285046 0)
(1.13174 0.202957 0)
(1.30241 0.144189 0)
(1.43216 0.100672 0)
(1.52617 0.0665271 0)
(1.58816 0.0376672 0)
(1.61998 0.0110685 0)
(1.62145 -0.0159522 0)
(1.58999 -0.0465566 0)
(1.51987 -0.0854812 0)
(1.40098 -0.14105 0)
(1.21802 -0.228492 0)
(0.949025 -0.37351 0)
(0.57298 -0.607383 0)
(0.173849 -0.906008 0)
(0.0803432 -0.886035 0)
(0.817651 0.40035 0)
(1.06376 0.352962 0)
(1.49344 0.21777 0)
(1.81903 0.131301 0)
(2.02134 0.0809642 0)
(2.15335 0.0507379 0)
(2.24416 0.0321394 0)
(2.30678 0.0202313 0)
(2.34851 0.0120319 0)
(2.37372 0.00579102 0)
(2.38462 0.000441158 0)
(2.38181 -0.00478473 0)
(2.36434 -0.0107162 0)
(2.32913 -0.018607 0)
(2.26954 -0.0309743 0)
(2.17197 -0.0534278 0)
(2.00494 -0.0985208 0)
(1.69428 -0.191277 0)
(1.21334 -0.354344 0)
(0.889278 -0.425464 0)
)
;

boundaryField
{
    movingWall
    {
        type            fixedValue;
        value           uniform (2.8 0 0);
    }
    fixedWalls
    {
        type            noSlip;
    }
    frontAndBack
    {
        type            empty;
    }
}


// ************************************************************************* //
