/*--------------------------------*- C++ -*----------------------------------*\
  =========                 |
  \\      /  F ield         | OpenFOAM: The Open Source CFD Toolbox
   \\    /   O peration     | Website:  https://openfoam.org
    \\  /    A nd           | Version:  8
     \\/     M anipulation  |
\*---------------------------------------------------------------------------*/
FoamFile
{
    version     2.0;
    format      ascii;
    class       volScalarField;
    location    "0.4";
    object      p;
}
// * * * * * * * * * * * * * * * * * * * * * * * * * * * * * * * * * * * * * //

dimensions      [0 2 -2 0 0 0 0];

internalField   nonuniform List<scalar> 
400
(
1.11741e-05
-0.0116481
-0.0257491
-0.0364262
-0.0403627
-0.036116
-0.0235635
-0.00349038
0.0226744
0.0530036
0.0851701
0.116562
0.144455
0.166272
0.179927
0.184238
0.179392
0.167389
0.152386
0.14079
0.0115886
-0.0004416
-0.0114654
-0.0187515
-0.0207945
-0.0166006
-0.00601477
0.0104229
0.0316548
0.056201
0.0822351
0.107687
0.130399
0.148343
0.159905
0.164201
0.161417
0.152989
0.141185
0.129333
0.0265173
0.00988955
-0.00197228
-0.00859981
-0.0102286
-0.0063827
0.00295298
0.0172868
0.0357501
0.057132
0.0799093
0.102316
0.122472
0.138567
0.149108
0.153189
0.150801
0.142853
0.129986
0.113492
0.0396143
0.0167716
0.00213595
-0.00535836
-0.00741309
-0.0040171
0.00465068
0.0180495
0.035387
0.0555979
0.0773193
0.098918
0.118584
0.134496
0.145037
0.149066
0.14627
0.137104
0.120936
0.0978759
0.0473273
0.0180763
0.000172121
-0.0086301
-0.0112931
-0.00819937
0.0002911
0.0135699
0.0308826
0.0512562
0.0734195
0.0957842
0.116503
0.133605
0.145208
0.149799
0.146671
0.135847
0.115617
0.0853402
0.0469808
0.0114282
-0.00980859
-0.0199541
-0.0230952
-0.0199518
-0.0110403
0.00296729
0.0213433
0.0431827
0.0672689
0.0920048
0.115428
0.135316
0.149386
0.155611
0.152772
0.140416
0.115806
0.0777811
0.0362775
-0.00545608
-0.0298904
-0.0411507
-0.0444006
-0.0406746
-0.0306289
-0.0149847
0.00556644
0.0301926
0.0577286
0.0865508
0.114537
0.139133
0.157523
0.166997
0.165645
0.152386
0.123329
0.0768379
0.0129493
-0.0349005
-0.0622472
-0.0741482
-0.0768999
-0.0718763
-0.0598722
-0.0416395
-0.0178025
0.0109191
0.0434513
0.0781729
0.112805
0.144408
0.169516
0.184527
0.186577
0.173673
0.140394
0.0844838
-0.0254837
-0.079472
-0.109288
-0.121069
-0.122428
-0.115164
-0.100234
-0.0784012
-0.0501692
-0.0160701
0.0230024
0.0655172
0.109101
0.150434
0.185301
0.208975
0.217284
0.206844
0.170027
0.103562
-0.0819108
-0.142163
-0.173744
-0.184199
-0.182832
-0.172038
-0.15299
-0.126443
-0.0927021
-0.0519962
-0.00489407
0.0473215
0.102329
0.156521
0.204899
0.241385
0.260047
0.255417
0.216547
0.138369
-0.159911
-0.226647
-0.258765
-0.265902
-0.259737
-0.243548
-0.218814
-0.18625
-0.14586
-0.0974054
-0.0409244
0.0227877
0.0917168
0.162189
0.228525
0.283153
0.317888
0.324227
0.28619
0.195448
-0.264319
-0.337728
-0.368062
-0.368457
-0.354167
-0.329786
-0.297189
-0.256995
-0.208747
-0.15152
-0.0845568
-0.0078418
0.0773017
0.167537
0.256833
0.336193
0.394777
0.419878
0.387983
0.284831
-0.402452
-0.482141
-0.506088
-0.493769
-0.465992
-0.429195
-0.385675
-0.335787
-0.27836
-0.211499
-0.133315
-0.0425906
0.0605526
0.173737
0.291243
0.403139
0.495859
0.551303
0.535037
0.422192
-0.586886
-0.669977
-0.678143
-0.64276
-0.593044
-0.537657
-0.479056
-0.41692
-0.348936
-0.271839
-0.182231
-0.0772136
0.0448607
0.183417
0.334144
0.487346
0.62745
0.73026
0.746494
0.632954
-0.841507
-0.916958
-0.88994
-0.813966
-0.729643
-0.647277
-0.568491
-0.491368
-0.411713
-0.324331
-0.223869
-0.105324
0.0353634
0.200393
0.388407
0.592092
0.796101
0.971103
1.05004
0.959904
-1.21299
-1.24717
-1.146
-1.00123
-0.864724
-0.74527
-0.641174
-0.547094
-0.455731
-0.359202
-0.249733
-0.119829
0.0375112
0.228245
0.455871
0.718787
1.00646
1.28885
1.48325
1.47403
-1.79254
-1.69456
-1.44691
-1.19234
-0.981684
-0.814856
-0.68216
-0.571548
-0.470718
-0.368215
-0.253437
-0.116167
0.0538807
0.267304
0.534615
0.864472
1.25835
1.69498
2.09269
2.2919
-2.7951
-2.30048
-1.77103
-1.35668
-1.05216
-0.833307
-0.675209
-0.554176
-0.45063
-0.348893
-0.235587
-0.0980069
0.077235
0.305854
0.60753
1.00674
1.52693
2.17609
2.93804
3.66257
-4.8095
-3.08051
-1.97794
-1.36895
-0.988805
-0.744503
-0.586948
-0.477556
-0.389304
-0.303599
-0.205964
-0.0828794
0.0801853
0.302265
0.611458
1.05134
1.68199
2.59687
4.05631
6.20002
-8.3822
-3.84005
-1.78954
-1.04376
-0.688477
-0.49614
-0.393662
-0.334085
-0.288758
-0.240674
-0.177748
-0.0894181
0.0366335
0.216973
0.479625
0.877838
1.51471
2.64872
5.1576
10.1626
)
;

boundaryField
{
    movingWall
    {
        type            zeroGradient;
    }
    fixedWalls
    {
        type            zeroGradient;
    }
    frontAndBack
    {
        type            empty;
    }
}


// ************************************************************************* //
