/*--------------------------------*- C++ -*----------------------------------*\
  =========                 |
  \\      /  F ield         | OpenFOAM: The Open Source CFD Toolbox
   \\    /   O peration     | Website:  https://openfoam.org
    \\  /    A nd           | Version:  8
     \\/     M anipulation  |
\*---------------------------------------------------------------------------*/
FoamFile
{
    version     2.0;
    format      ascii;
    class       volScalarField;
    location    "0.3";
    object      p;
}
// * * * * * * * * * * * * * * * * * * * * * * * * * * * * * * * * * * * * * //

dimensions      [0 2 -2 0 0 0 0];

internalField   nonuniform List<scalar> 
400
(
7.23792e-08
-0.0198604
-0.0435307
-0.0613237
-0.0679859
-0.0612803
-0.0409632
-0.00811229
0.0352145
0.0860823
0.140717
0.194622
0.242876
0.28067
0.30405
0.310813
0.301416
0.27973
0.253452
0.233841
0.0197197
-0.000818018
-0.0193052
-0.0313987
-0.0348865
-0.0282506
-0.0111888
0.0155999
0.0506315
0.0916816
0.135806
0.17945
0.218708
0.249775
0.269559
0.276382
0.270656
0.255202
0.234458
0.214488
0.0447779
0.016427
-0.00338489
-0.014282
-0.01707
-0.0111095
0.00368466
0.0267263
0.0568862
0.0924311
0.130961
0.169454
0.204469
0.232543
0.250736
0.257273
0.252195
0.237419
0.214697
0.186793
0.0660445
0.0272465
0.00293248
-0.00931762
-0.0129001
-0.00797126
0.00527576
0.0262584
0.0540792
0.0873486
0.124008
0.161283
0.195818
0.224026
0.242622
0.249292
0.243469
0.226317
0.197564
0.158215
0.077074
0.0276866
-0.0018807
-0.016275
-0.0211282
-0.0172498
-0.00504945
0.0149139
0.0419639
0.0750144
0.112273
0.151085
0.187988
0.219004
0.240179
0.24833
0.242048
0.221731
0.185424
0.133158
0.0728812
0.0133609
-0.0214865
-0.0381971
-0.0443659
-0.0413241
-0.0296081
-0.00969024
0.0180135
0.0527387
0.0929502
0.136066
0.178397
0.215372
0.242059
0.254033
0.248706
0.225533
0.180905
0.114333
0.0492149
-0.0198625
-0.0596955
-0.0785381
-0.0857891
-0.0832154
-0.0713976
-0.0506357
-0.0210022
0.0171423
0.0625932
0.112881
0.164065
0.210828
0.246953
0.26632
0.264649
0.240013
0.186782
0.104053
0.00209748
-0.075968
-0.120278
-0.140773
-0.148633
-0.146042
-0.133566
-0.111237
-0.0786572
-0.0356269
0.0171528
0.0774879
0.141278
0.20241
0.253102
0.28499
0.291362
0.268103
0.206642
0.105384
-0.0724334
-0.159007
-0.207091
-0.228428
-0.236125
-0.232862
-0.219174
-0.194731
-0.158499
-0.109491
-0.0476194
0.0255009
0.105874
0.186703
0.258454
0.309917
0.330952
0.313965
0.245764
0.123248
-0.178487
-0.273262
-0.324097
-0.344889
-0.351104
-0.346133
-0.330527
-0.30351
-0.263219
-0.207586
-0.135346
-0.0470702
0.0538298
0.160232
0.260887
0.341211
0.386431
0.383584
0.312113
0.165699
-0.320599
-0.423527
-0.475393
-0.493114
-0.495439
-0.486895
-0.468169
-0.437966
-0.393379
-0.330908
-0.247639
-0.142485
-0.0175593
0.1204
0.258867
0.379664
0.46216
0.485528
0.41765
0.245683
-0.504457
-0.615714
-0.665336
-0.675238
-0.669247
-0.653716
-0.629622
-0.595057
-0.545804
-0.476549
-0.382199
-0.259307
-0.107761
0.067189
0.25278
0.427704
0.564646
0.632013
0.580182
0.383765
-0.73871
-0.858087
-0.898794
-0.892038
-0.869894
-0.841433
-0.807988
-0.766794
-0.711952
-0.63589
-0.530808
-0.390184
-0.210655
0.0054657
0.246963
0.490979
0.703788
0.840381
0.826053
0.612718
-1.03925
-1.16357
-1.18139
-1.14203
-1.09068
-1.0398
-0.9907
-0.939119
-0.876847
-0.793503
-0.678067
-0.520323
-0.312693
-0.052948
0.251726
0.580033
0.894228
1.13485
1.19417
0.985835
-1.43885
-1.55367
-1.51906
-1.41953
-1.31887
-1.23204
-1.15869
-1.09167
-1.01934
-0.927746
-0.802144
-0.628165
-0.393286
-0.0892615
0.283642
0.710486
1.15526
1.54719
1.74081
1.59099
-2.00644
-2.0638
-1.91602
-1.71152
-1.53343
-1.39384
-1.28676
-1.19934
-1.1147
-1.0142
-0.87887
-0.689889
-0.429355
-0.0818631
0.362132
0.900234
1.50805
2.11389
2.54122
2.56741
-2.8857
-2.74806
-2.37171
-1.99663
-1.70585
-1.49591
-1.34775
-1.23789
-1.14128
-1.03338
-0.890446
-0.689088
-0.405777
-0.0169818
0.499621
1.16142
1.96891
2.86897
3.68819
4.13153
-4.42761
-3.67569
-2.85377
-2.22775
-1.79167
-1.50177
-1.31498
-1.18951
-1.08859
-0.980726
-0.837617
-0.631741
-0.334287
0.0871588
0.671065
1.46347
2.50717
3.80609
5.30681
6.73433
-7.61639
-4.86968
-3.12882
-2.19862
-1.64627
-1.3169
-1.13134
-1.02456
-0.947494
-0.863773
-0.743123
-0.556537
-0.272972
0.146248
0.754756
1.63339
2.89533
4.70304
7.47945
11.4342
-13.5245
-6.02378
-2.71953
-1.5923
-1.09154
-0.847933
-0.752916
-0.729226
-0.724274
-0.703726
-0.640923
-0.510823
-0.285322
0.0709761
0.612378
1.43735
2.74193
4.98889
9.62619
18.4708
)
;

boundaryField
{
    movingWall
    {
        type            zeroGradient;
    }
    fixedWalls
    {
        type            zeroGradient;
    }
    frontAndBack
    {
        type            empty;
    }
}


// ************************************************************************* //
