/*--------------------------------*- C++ -*----------------------------------*\
  =========                 |
  \\      /  F ield         | OpenFOAM: The Open Source CFD Toolbox
   \\    /   O peration     | Website:  https://openfoam.org
    \\  /    A nd           | Version:  8
     \\/     M anipulation  |
\*---------------------------------------------------------------------------*/
FoamFile
{
    version     2.0;
    format      ascii;
    class       surfaceScalarField;
    location    "0.3";
    object      phi;
}
// * * * * * * * * * * * * * * * * * * * * * * * * * * * * * * * * * * * * * //

dimensions      [0 3 -1 0 0 0 0];

internalField   nonuniform List<scalar> 
760
(
4.4526e-08
-4.45285e-08
-8.52614e-08
1.29787e-07
-3.98465e-07
3.13202e-07
-8.36813e-07
4.38344e-07
-1.33618e-06
4.99364e-07
-1.8388e-06
5.02619e-07
-2.29545e-06
4.56654e-07
-2.66512e-06
3.69668e-07
-2.91437e-06
2.49246e-07
-3.01787e-06
1.03497e-07
-2.96041e-06
-5.7457e-08
-2.74002e-06
-2.20388e-07
-2.37125e-06
-3.68765e-07
-1.88756e-06
-4.8369e-07
-1.34146e-06
-5.46106e-07
-8.01243e-07
-5.40215e-07
-3.43401e-07
-4.57844e-07
-4.02439e-08
-3.03159e-07
6.1377e-08
-1.01622e-07
6.13781e-08
-1.26099e-07
8.15679e-08
-6.34575e-07
6.38262e-07
-1.49718e-06
1.1758e-06
-2.60685e-06
1.54802e-06
-3.83534e-06
1.72785e-06
-5.05688e-06
1.72416e-06
-6.15817e-06
1.55795e-06
-7.0422e-06
1.2537e-06
-7.6303e-06
8.37348e-07
-7.86508e-06
3.38271e-07
-7.71503e-06
-2.07506e-07
-7.18042e-06
-7.54999e-07
-6.2989e-06
-1.25029e-06
-5.14873e-06
-1.63387e-06
-3.84715e-06
-1.84769e-06
-2.54157e-06
-1.84579e-06
-1.39176e-06
-1.60766e-06
-5.42462e-07
-1.15245e-06
-8.5749e-08
-5.58335e-07
-2.43712e-08
-3.29038e-07
4.10605e-07
-1.24519e-06
1.55441e-06
-2.63029e-06
2.56091e-06
-4.32454e-06
3.24227e-06
-6.1533e-06
3.5566e-06
-7.94653e-06
3.51739e-06
-9.5496e-06
3.16102e-06
-1.0829e-05
2.53314e-06
-1.16766e-05
1.68491e-06
-1.20139e-05
6.75589e-07
-1.17987e-05
-4.22701e-07
-1.10322e-05
-1.52157e-06
-9.76554e-06
-2.51691e-06
-8.10419e-06
-3.29522e-06
-6.20531e-06
-3.74657e-06
-4.26693e-06
-3.78418e-06
-2.50577e-06
-3.36882e-06
-1.12441e-06
-2.53381e-06
-2.70915e-07
-1.41183e-06
-2.95287e-07
-5.14113e-07
9.2472e-07
-1.8235e-06
2.86379e-06
-3.70692e-06
4.44433e-06
-5.94043e-06
5.47578e-06
-8.30477e-06
5.92095e-06
-1.05954e-05
5.80803e-06
-1.26293e-05
5.19486e-06
-1.42489e-05
4.15276e-06
-1.53263e-05
2.76234e-06
-1.5768e-05
1.11723e-06
-1.55215e-05
-6.69199e-07
-1.4584e-05
-2.45908e-06
-1.30104e-05
-4.09049e-06
-1.09193e-05
-5.38626e-06
-8.49318e-06
-6.17273e-06
-5.96854e-06
-6.30882e-06
-3.61444e-06
-5.72293e-06
-1.69807e-06
-4.45017e-06
-4.43909e-07
-2.666e-06
-7.39196e-07
-6.8029e-07
1.60501e-06
-2.35868e-06
4.54218e-06
-4.71362e-06
6.79927e-06
-7.45314e-06
8.2153e-06
-1.03134e-05
8.78121e-06
-1.30602e-05
8.55485e-06
-1.54897e-05
7.62433e-06
-1.74284e-05
6.09147e-06
-1.87348e-05
4.06871e-06
-1.93026e-05
1.68511e-06
-1.90677e-05
-9.04161e-07
-1.80165e-05
-3.51029e-06
-1.61972e-05
-5.90979e-06
-1.37294e-05
-7.85401e-06
-1.08099e-05
-9.09228e-06
-7.70813e-06
-9.41054e-06
-4.74866e-06
-8.6824e-06
-2.27622e-06
-6.92262e-06
-6.10151e-07
-4.33206e-06
-1.34935e-06
-8.32384e-07
2.4374e-06
-2.8561e-06
6.56589e-06
-5.6554e-06
9.59857e-06
-8.87086e-06
1.14308e-05
-1.21955e-05
1.21058e-05
-1.53695e-05
1.17289e-05
-1.81742e-05
1.0429e-05
-2.04264e-05
8.34373e-06
-2.19757e-05
5.61799e-06
-2.27047e-05
2.41413e-06
-2.25345e-05
-1.07445e-06
-2.14336e-05
-4.61115e-06
-1.94323e-05
-7.91105e-06
-1.66383e-05
-1.06481e-05
-1.32507e-05
-1.24799e-05
-9.56638e-06
-1.30948e-05
-5.9694e-06
-1.22794e-05
-2.89726e-06
-9.99476e-06
-7.85547e-07
-6.44378e-06
-2.1349e-06
-9.74689e-07
3.41209e-06
-3.32274e-06
8.91394e-06
-6.53825e-06
1.28141e-05
-1.01963e-05
1.50888e-05
-1.39497e-05
1.58592e-05
-1.75184e-05
1.52975e-05
-2.06755e-05
1.35861e-05
-2.32349e-05
1.09032e-05
-2.50427e-05
7.42572e-06
-2.59726e-05
3.34412e-06
-2.59292e-05
-1.11788e-06
-2.48562e-05
-5.68413e-06
-2.27538e-05
-1.00135e-05
-1.97017e-05
-1.37002e-05
-1.58854e-05
-1.62962e-05
-1.1618e-05
-1.73622e-05
-7.34308e-06
-1.65543e-05
-3.60634e-06
-1.37315e-05
-9.87994e-07
-9.06213e-06
-3.12289e-06
-1.11041e-06
4.5225e-06
-3.76392e-06
1.15674e-05
-7.36402e-06
1.64142e-05
-1.14213e-05
1.9146e-05
-1.55527e-05
1.99906e-05
-1.94649e-05
1.92098e-05
-2.29322e-05
1.70534e-05
-2.57749e-05
1.37459e-05
-2.78433e-05
9.49414e-06
-2.9008e-05
4.50879e-06
-2.91574e-05
-9.6841e-07
-2.82056e-05
-6.63596e-06
-2.61103e-05
-1.21088e-05
-2.29041e-05
-1.69064e-05
-1.87355e-05
-2.04647e-05
-1.39122e-05
-2.21856e-05
-8.92762e-06
-2.15388e-05
-4.44824e-06
-1.82109e-05
-1.23585e-06
-1.22745e-05
-4.35874e-06
-1.24263e-06
5.76513e-06
-4.18463e-06
1.45094e-05
-8.13126e-06
2.03608e-05
-1.25269e-05
2.35417e-05
-1.69582e-05
2.44219e-05
-2.11291e-05
2.33807e-05
-2.48273e-05
2.07516e-05
-2.7893e-05
1.68115e-05
-3.01933e-05
1.17945e-05
-3.16052e-05
5.92062e-06
-3.20069e-05
-5.66646e-07
-3.12816e-05
-7.36126e-06
-2.93346e-05
-1.40558e-05
-2.61298e-05
-2.01112e-05
-2.17466e-05
-2.48479e-05
-1.6451e-05
-2.74812e-05
-1.07601e-05
-2.72297e-05
-5.46322e-06
-2.35078e-05
-1.54801e-06
-1.61897e-05
-5.90675e-06
-1.37692e-06
7.14206e-06
-4.5946e-06
1.77271e-05
-8.84088e-06
2.46071e-05
-1.34883e-05
2.81892e-05
-1.81006e-05
2.90342e-05
-2.23937e-05
2.76738e-05
-2.61871e-05
2.4545e-05
-2.93589e-05
1.99833e-05
-3.18106e-05
1.42462e-05
-3.34412e-05
7.55124e-06
-3.41314e-05
1.23486e-07
-3.37391e-05
-7.75348e-06
-3.21127e-05
-1.56822e-05
-2.91273e-05
-2.30967e-05
-2.47539e-05
-2.92213e-05
-1.91627e-05
-3.30724e-05
-1.2842e-05
-3.35503e-05
-6.68349e-06
-2.96663e-05
-1.94505e-06
-2.09282e-05
-7.8518e-06
-1.52586e-06
8.66792e-06
-5.0169e-06
2.12182e-05
-9.50487e-06
2.90951e-05
-1.42807e-05
3.2965e-05
-1.88973e-05
3.36509e-05
-2.31055e-05
3.1882e-05
-2.67808e-05
2.82203e-05
-2.98636e-05
2.30662e-05
-3.23125e-05
1.6695e-05
-3.40701e-05
9.30887e-06
-3.50392e-05
1.09256e-06
-3.50684e-05
-7.72422e-06
-3.39545e-05
-1.67961e-05
-3.14708e-05
-2.55804e-05
-2.74398e-05
-3.32523e-05
-2.18647e-05
-3.86475e-05
-1.51168e-05
-4.02982e-05
-8.12756e-06
-3.66556e-05
-2.45136e-06
-2.66044e-05
-1.03032e-05
-1.71644e-06
1.03844e-05
-5.49963e-06
2.50013e-05
-1.01552e-05
3.37506e-05
-1.48817e-05
3.76915e-05
-1.92461e-05
3.80153e-05
-2.30685e-05
3.57044e-05
-2.63147e-05
3.14666e-05
-2.90167e-05
2.57681e-05
-3.12161e-05
1.88944e-05
-3.29248e-05
1.10176e-05
-3.40937e-05
2.26143e-06
-3.4588e-05
-7.22985e-06
-3.41735e-05
-1.72107e-05
-3.25252e-05
-2.72287e-05
-2.92869e-05
-3.64905e-05
-2.4215e-05
-4.37195e-05
-1.74354e-05
-4.70777e-05
-9.78884e-06
-4.43022e-05
-3.0982e-06
-3.3295e-05
-1.34014e-05
-2.00207e-06
1.23864e-05
-6.12915e-06
2.91284e-05
-1.08452e-05
3.84667e-05
-1.52584e-05
4.21047e-05
-1.90008e-05
4.17576e-05
-2.20177e-05
3.87213e-05
-2.44096e-05
3.38586e-05
-2.63325e-05
2.76909e-05
-2.79363e-05
2.04983e-05
-2.93258e-05
1.24071e-05
-3.05275e-05
3.46306e-06
-3.1457e-05
-6.30031e-06
-3.18866e-05
-1.67811e-05
-3.14233e-05
-2.76921e-05
-2.95302e-05
-3.83836e-05
-2.56491e-05
-4.76006e-05
-1.95013e-05
-5.32255e-05
-1.16119e-05
-5.21916e-05
-3.92732e-06
-4.09796e-05
-1.73287e-05
-2.48129e-06
1.48677e-05
-7.03741e-06
3.36845e-05
-1.16234e-05
4.30527e-05
-1.53092e-05
4.57905e-05
-1.78971e-05
4.43455e-05
-1.95433e-05
4.03675e-05
-2.05372e-05
3.48524e-05
-2.11876e-05
2.83412e-05
-2.17681e-05
2.10788e-05
-2.24882e-05
1.31273e-05
-2.34692e-05
4.44406e-06
-2.47108e-05
-5.05871e-06
-2.60434e-05
-1.54486e-05
-2.70688e-05
-2.66666e-05
-2.7119e-05
-3.83334e-05
-2.53031e-05
-4.94165e-05
-2.07827e-05
-5.77459e-05
-1.34408e-05
-5.95335e-05
-4.99056e-06
-4.94298e-05
-2.23192e-05
-3.32044e-06
1.81882e-05
-8.37428e-06
3.87384e-05
-1.24256e-05
4.7104e-05
-1.47002e-05
4.80651e-05
-1.53699e-05
4.50153e-05
-1.49206e-05
3.99182e-05
-1.38811e-05
3.38129e-05
-1.27225e-05
2.71827e-05
-1.18319e-05
2.01882e-05
-1.15105e-05
1.28058e-05
-1.19709e-05
4.90442e-06
-1.33158e-05
-3.71378e-06
-1.5487e-05
-1.32774e-05
-1.81748e-05
-2.39787e-05
-2.06987e-05
-3.58095e-05
-2.19204e-05
-4.81948e-05
-2.03679e-05
-5.92984e-05
-1.4899e-05
-6.50024e-05
-6.3233e-06
-5.80055e-05
-2.86425e-05
-4.74589e-06
2.2934e-05
-1.01421e-05
4.41345e-05
-1.2749e-05
4.9711e-05
-1.24695e-05
4.77856e-05
-1.01705e-05
4.27163e-05
-6.78514e-06
3.65328e-05
-3.08788e-06
3.01156e-05
3.30526e-07
2.37643e-05
3.02768e-06
1.7491e-05
4.6642e-06
1.11693e-05
4.97527e-06
4.59336e-06
3.7673e-06
-2.50582e-06
9.54329e-07
-1.04645e-05
-3.3453e-06
-1.96791e-05
-8.62684e-06
-3.0528e-05
-1.37434e-05
-4.30783e-05
-1.67248e-05
-5.6317e-05
-1.51159e-05
-6.66114e-05
-7.81957e-06
-6.53018e-05
-3.64621e-05
-6.87501e-06
2.98091e-05
-1.15796e-05
4.88392e-05
-1.07913e-05
4.89226e-05
-6.18213e-06
4.31764e-05
3.26757e-07
3.62074e-05
7.37385e-06
2.94857e-05
1.40718e-05
2.34177e-05
1.98561e-05
1.798e-05
2.43538e-05
1.29933e-05
2.72885e-05
8.23456e-06
2.84206e-05
3.4613e-06
2.75177e-05
-1.60294e-06
2.43606e-05
-7.30738e-06
1.88067e-05
-1.41252e-05
1.09716e-05
-2.26929e-05
1.60645e-06
-3.37131e-05
-7.32129e-06
-4.73892e-05
-1.21828e-05
-6.17499e-05
-8.87543e-06
-6.86092e-05
-4.53375e-05
-8.98071e-06
3.87898e-05
-9.2579e-06
4.91164e-05
-1.42563e-06
4.10904e-05
9.62959e-06
3.21212e-05
2.11227e-05
2.47143e-05
3.17573e-05
1.88511e-05
4.09398e-05
1.42352e-05
4.84076e-05
1.05122e-05
5.40362e-05
7.36471e-06
5.7732e-05
4.53882e-06
5.93709e-05
1.82239e-06
5.87611e-05
-9.93174e-07
5.56154e-05
-4.16164e-06
4.95484e-05
-8.05824e-06
4.01541e-05
-1.32985e-05
2.73153e-05
-2.08744e-05
1.20238e-05
-3.20977e-05
-2.08929e-06
-4.76368e-05
-7.59508e-06
-6.31034e-05
-5.29326e-05
-4.95288e-06
4.37426e-05
8.85384e-06
3.53096e-05
2.78815e-05
2.20627e-05
4.54488e-05
1.45539e-05
6.01853e-05
9.97779e-06
7.20955e-05
6.94096e-06
8.14665e-05
4.86415e-06
8.86007e-05
3.37795e-06
9.37306e-05
2.23481e-06
9.69919e-05
1.27754e-06
9.84133e-05
4.01019e-07
9.79055e-05
-4.85466e-07
9.52191e-05
-1.47516e-06
8.98849e-05
-2.72407e-06
8.11121e-05
-4.52572e-06
6.77449e-05
-7.50716e-06
4.86552e-05
-1.30081e-05
2.44995e-05
-2.3481e-05
2.51426e-06
-4.11181e-05
-5.04184e-05
4.37426e-05
7.90523e-05
0.000101115
0.000115669
0.000125647
0.000132588
0.000137452
0.00014083
0.000143065
0.000144342
0.000144743
0.000144258
0.000142783
0.000140058
0.000135533
0.000128026
0.000115018
9.15365e-05
5.04184e-05
)
;

boundaryField
{
    movingWall
    {
        type            calculated;
        value           uniform 0;
    }
    fixedWalls
    {
        type            calculated;
        value           uniform 0;
    }
    frontAndBack
    {
        type            empty;
        value           nonuniform List<scalar> 0();
    }
}


// ************************************************************************* //
