/*--------------------------------*- C++ -*----------------------------------*\
  =========                 |
  \\      /  F ield         | OpenFOAM: The Open Source CFD Toolbox
   \\    /   O peration     | Website:  https://openfoam.org
    \\  /    A nd           | Version:  8
     \\/     M anipulation  |
\*---------------------------------------------------------------------------*/
FoamFile
{
    version     2.0;
    format      ascii;
    class       volVectorField;
    location    "0.1";
    object      U;
}
// * * * * * * * * * * * * * * * * * * * * * * * * * * * * * * * * * * * * * //

dimensions      [0 1 -1 0 0 0 0];

internalField   nonuniform List<vector> 
400
(
(0.000815284 -0.000836336 0)
(0.00032834 0.000426171 0)
(-0.00428512 0.00194721 0)
(-0.0121225 0.00297998 0)
(-0.0218554 0.0034907 0)
(-0.0322168 0.00355699 0)
(-0.0421207 0.00326107 0)
(-0.050655 0.00266968 0)
(-0.0570655 0.00183561 0)
(-0.0607495 0.000810522 0)
(-0.0612816 -0.00033927 0)
(-0.0584685 -0.00152094 0)
(-0.0524201 -0.00261085 0)
(-0.0436128 -0.00346068 0)
(-0.0329229 -0.00391423 0)
(-0.0216007 -0.00383483 0)
(-0.0111634 -0.00314153 0)
(-0.00318979 -0.00185149 0)
(0.000998373 -0.000183112 0)
(0.00100509 0.000975856 0)
(-0.000390249 -0.000403795 0)
(-0.00591238 0.00587241 0)
(-0.0200815 0.0124536 0)
(-0.0406399 0.0170422 0)
(-0.0648826 0.0193101 0)
(-0.0902152 0.0194171 0)
(-0.114211 0.0176464 0)
(-0.134735 0.0142935 0)
(-0.149999 0.00964864 0)
(-0.158604 0.00403035 0)
(-0.159614 -0.00216459 0)
(-0.152672 -0.00842454 0)
(-0.138124 -0.0141175 0)
(-0.117126 -0.0185288 0)
(-0.091674 -0.0209459 0)
(-0.0645139 -0.0207898 0)
(-0.0388626 -0.0177829 0)
(-0.017936 -0.0121341 0)
(-0.004471 -0.00485437 0)
(4.78085e-05 0.00112157 0)
(-0.00199199 0.00419505 0)
(-0.0132899 0.0202366 0)
(-0.037116 0.0351723 0)
(-0.0692088 0.0454915 0)
(-0.105688 0.0504321 0)
(-0.143105 0.0501887 0)
(-0.17818 0.0453103 0)
(-0.207978 0.0364684 0)
(-0.230036 0.0243968 0)
(-0.242431 0.00993962 0)
(-0.243893 -0.00586524 0)
(-0.233949 -0.0217252 0)
(-0.213081 -0.0360974 0)
(-0.182846 -0.0472838 0)
(-0.145926 -0.0536331 0)
(-0.106001 -0.0538432 0)
(-0.0673954 -0.0473417 0)
(-0.0344782 -0.0346833 0)
(-0.0113503 -0.0180384 0)
(-0.00136673 -0.0024643 0)
(-0.0034272 0.0127926 0)
(-0.0202358 0.0428964 0)
(-0.0534039 0.0684645 0)
(-0.0963583 0.0855523 0)
(-0.143953 0.0932666 0)
(-0.19202 0.0919703 0)
(-0.236671 0.0825701 0)
(-0.274441 0.0662056 0)
(-0.302417 0.0441662 0)
(-0.318319 0.0179564 0)
(-0.320609 -0.0105853 0)
(-0.308655 -0.039201 0)
(-0.282919 -0.0652247 0)
(-0.245114 -0.0857389 0)
(-0.198298 -0.0979015 0)
(-0.146802 -0.0994459 0)
(-0.0958676 -0.0893046 0)
(-0.0510254 -0.0682386 0)
(-0.0180341 -0.0394499 0)
(-0.00262867 -0.00972366 0)
(-0.00467979 0.0249381 0)
(-0.0266019 0.0732496 0)
(-0.0686556 0.111495 0)
(-0.121914 0.136046 0)
(-0.179918 0.146342 0)
(-0.23783 0.143184 0)
(-0.291288 0.127985 0)
(-0.336462 0.102444 0)
(-0.370146 0.0684643 0)
(-0.389788 0.0282601 0)
(-0.393593 -0.0154797 0)
(-0.380685 -0.0594628 0)
(-0.351322 -0.0997926 0)
(-0.307132 -0.132162 0)
(-0.251299 -0.152289 0)
(-0.18862 -0.156622 0)
(-0.125223 -0.143232 0)
(-0.0679728 -0.112728 0)
(-0.0246581 -0.0690303 0)
(-0.00377738 -0.020396 0)
(-0.00581184 0.0403172 0)
(-0.0325085 0.11087 0)
(-0.0829788 0.163852 0)
(-0.146011 0.196538 0)
(-0.213841 0.209195 0)
(-0.281014 0.203392 0)
(-0.342797 0.181255 0)
(-0.395132 0.145137 0)
(-0.434629 0.0975845 0)
(-0.458538 0.041506 0)
(-0.464793 -0.0195915 0)
(-0.452168 -0.081399 0)
(-0.420525 -0.138749 0)
(-0.371142 -0.185795 0)
(-0.307059 -0.216527 0)
(-0.23334 -0.225655 0)
(-0.156972 -0.209831 0)
(-0.0863613 -0.168959 0)
(-0.0317715 -0.107283 0)
(-0.00496775 -0.0345037 0)
(-0.00687471 0.0587082 0)
(-0.0380861 0.15536 0)
(-0.0965191 0.225064 0)
(-0.168745 0.266514 0)
(-0.245742 0.281301 0)
(-0.32151 0.272144 0)
(-0.391073 0.242111 0)
(-0.450283 0.194315 0)
(-0.495704 0.131945 0)
(-0.524469 0.0585252 0)
(-0.534251 -0.0217355 0)
(-0.523384 -0.103623 0)
(-0.491136 -0.180743 0)
(-0.438134 -0.245614 0)
(-0.366927 -0.290176 0)
(-0.282536 -0.306831 0)
(-0.19266 -0.290036 0)
(-0.107399 -0.238172 0)
(-0.0400283 -0.155242 0)
(-0.00637308 -0.0524336 0)
(-0.00790564 0.0799651 0)
(-0.0434355 0.206358 0)
(-0.109368 0.29459 0)
(-0.190063 0.34528 0)
(-0.275292 0.361885 0)
(-0.358628 0.348704 0)
(-0.435021 0.31001 0)
(-0.500427 0.249783 0)
(-0.551548 0.171825 0)
(-0.585543 0.0801417 0)
(-0.599895 -0.0205642 0)
(-0.592462 -0.124398 0)
(-0.561742 -0.223905 0)
(-0.507385 -0.309975 0)
(-0.430986 -0.37222 0)
(-0.337018 -0.400077 0)
(-0.233512 -0.384775 0)
(-0.132247 -0.321976 0)
(-0.0501104 -0.214514 0)
(-0.0081774 -0.0749559 0)
(-0.00894067 0.103997 0)
(-0.0486555 0.263533 0)
(-0.121585 0.371778 0)
(-0.209773 0.431858 0)
(-0.30182 0.449738 0)
(-0.39104 0.4318 0)
(-0.472554 0.383834 0)
(-0.542698 0.310801 0)
(-0.598576 0.217064 0)
(-0.63761 0.106919 0)
(-0.657265 -0.014731 0)
(-0.654984 -0.141668 0)
(-0.628394 -0.265715 0)
(-0.575851 -0.376322 0)
(-0.497427 -0.460641 0)
(-0.396296 -0.504486 0)
(-0.280078 -0.494583 0)
(-0.161862 -0.422144 0)
(-0.0627113 -0.28723 0)
(-0.0105886 -0.103232 0)
(-0.0100443 0.130783 0)
(-0.0539292 0.326587 0)
(-0.133321 0.455802 0)
(-0.227654 0.52482 0)
(-0.324385 0.542952 0)
(-0.416822 0.51929 0)
(-0.500605 0.461508 0)
(-0.572826 0.375676 0)
(-0.631365 0.266656 0)
(-0.674255 0.1388 0)
(-0.699242 -0.003168 0)
(-0.703567 -0.153199 0)
(-0.684028 -0.302943 0)
(-0.637453 -0.440886 0)
(-0.561789 -0.551877 0)
(-0.457903 -0.617633 0)
(-0.331768 -0.618942 0)
(-0.196817 -0.540168 0)
(-0.0785481 -0.375906 0)
(-0.0138691 -0.138838 0)
(-0.0113633 0.160461 0)
(-0.0596736 0.39534 0)
(-0.145006 0.545615 0)
(-0.243626 0.622094 0)
(-0.341889 0.638609 0)
(-0.433503 0.607773 0)
(-0.515134 0.539569 0)
(-0.585132 0.44132 0)
(-0.642632 0.318298 0)
(-0.686736 0.174656 0)
(-0.715907 0.0145055 0)
(-0.727573 -0.156886 0)
(-0.717963 -0.331773 0)
(-0.682357 -0.498512 0)
(-0.616069 -0.640302 0)
(-0.516504 -0.734731 0)
(-0.38619 -0.755327 0)
(-0.237017 -0.676533 0)
(-0.0983775 -0.483176 0)
(-0.018386 -0.183823 0)
(-0.0132206 0.193534 0)
(-0.0667684 0.469903 0)
(-0.1576 0.639897 0)
(-0.257885 0.720698 0)
(-0.353075 0.7324 0)
(-0.437977 0.692163 0)
(-0.511021 0.612741 0)
(-0.572459 0.502809 0)
(-0.623239 0.36794 0)
(-0.664051 0.211811 0)
(-0.694608 0.0374804 0)
(-0.713083 -0.151238 0)
(-0.715664 -0.348155 0)
(-0.696412 -0.542736 0)
(-0.647841 -0.71783 0)
(-0.562822 -0.847713 0)
(-0.438192 -0.897935 0)
(-0.281189 -0.829583 0)
(-0.122983 -0.611321 0)
(-0.0246941 -0.240831 0)
(-0.0162824 0.231293 0)
(-0.0768851 0.550948 0)
(-0.172779 0.736892 0)
(-0.270794 0.816295 0)
(-0.356139 0.818089 0)
(-0.425978 0.7652 0)
(-0.481563 0.673528 0)
(-0.525818 0.553064 0)
(-0.562067 0.409474 0)
(-0.593062 0.245674 0)
(-0.620278 0.0632714 0)
(-0.64327 -0.135981 0)
(-0.658966 -0.348453 0)
(-0.661003 -0.566244 0)
(-0.639547 -0.7739 0)
(-0.58242 -0.944432 0)
(-0.478484 -1.03612 0)
(-0.325962 -0.993795 0)
(-0.153052 -0.761394 0)
(-0.0336552 -0.313307 0)
(-0.0218435 0.276561 0)
(-0.0928904 0.639947 0)
(-0.192806 0.833868 0)
(-0.282008 0.902307 0)
(-0.347341 0.886696 0)
(-0.390507 0.816897 0)
(-0.417029 0.711952 0)
(-0.433301 0.582787 0)
(-0.44542 0.434759 0)
(-0.458435 0.269687 0)
(-0.475865 0.0874594 0)
(-0.499167 -0.112638 0)
(-0.526896 -0.330318 0)
(-0.553532 -0.561865 0)
(-0.568256 -0.796126 0)
(-0.554505 -1.00839 0)
(-0.491756 -1.1528 0)
(-0.364192 -1.15729 0)
(-0.188664 -0.931508 0)
(-0.0465482 -0.405715 0)
(-0.032222 0.334881 0)
(-0.119032 0.73895 0)
(-0.219179 0.925619 0)
(-0.287577 0.968255 0)
(-0.317311 0.925333 0)
(-0.318116 0.834048 0)
(-0.301433 0.715668 0)
(-0.277614 0.580998 0)
(-0.255451 0.43433 0)
(-0.24199 0.27598 0)
(-0.242559 0.104011 0)
(-0.260626 -0.084761 0)
(-0.297064 -0.293648 0)
(-0.348716 -0.524159 0)
(-0.406137 -0.772048 0)
(-0.45092 -1.01968 0)
(-0.454067 -1.22345 0)
(-0.381822 -1.29866 0)
(-0.227569 -1.11364 0)
(-0.0648454 -0.523425 0)
(-0.0508336 0.41643 0)
(-0.159476 0.848722 0)
(-0.247419 1.00077 0)
(-0.272148 0.996775 0)
(-0.242741 0.915773 0)
(-0.181447 0.800269 0)
(-0.106521 0.671046 0)
(-0.0316765 0.536718 0)
(0.0327163 0.399271 0)
(0.0788049 0.257127 0)
(0.100467 0.106625 0)
(0.0928262 -0.0573733 0)
(0.0525982 -0.241151 0)
(-0.0206837 -0.451318 0)
(-0.121923 -0.692081 0)
(-0.235607 -0.957803 0)
(-0.329286 -1.21675 0)
(-0.352001 -1.38373 0)
(-0.260198 -1.28864 0)
(-0.0884546 -0.672544 0)
(-0.0799246 0.539972 0)
(-0.210306 0.961841 0)
(-0.250903 1.03209 0)
(-0.190308 0.95739 0)
(-0.0699999 0.832465 0)
(0.073309 0.696939 0)
(0.216993 0.565697 0)
(0.347035 0.44211 0)
(0.454325 0.32451 0)
(0.532508 0.209187 0)
(0.576447 0.0912606 0)
(0.581266 -0.0352613 0)
(0.542079 -0.177985 0)
(0.454488 -0.346745 0)
(0.316729 -0.553209 0)
(0.135272 -0.806397 0)
(-0.0644342 -1.09719 0)
(-0.22518 -1.36227 0)
(-0.258432 -1.41786 0)
(-0.109315 -0.86008 0)
(-0.10658 0.731 0)
(-0.229387 1.04012 0)
(-0.137532 0.957813 0)
(0.0718765 0.800118 0)
(0.311374 0.644766 0)
(0.541978 0.509248 0)
(0.747183 0.39526 0)
(0.919385 0.298664 0)
(1.05514 0.213932 0)
(1.15251 0.135801 0)
(1.20943 0.0592874 0)
(1.22273 -0.0208796 0)
(1.18749 -0.111262 0)
(1.09658 -0.221319 0)
(0.941006 -0.365444 0)
(0.713345 -0.563861 0)
(0.417112 -0.835716 0)
(0.0876623 -1.16805 0)
(-0.152268 -1.42143 0)
(-0.0908726 -1.07074 0)
(-0.0111274 0.915073 0)
(-0.00924653 0.954806 0)
(0.353948 0.697686 0)
(0.755113 0.49893 0)
(1.09223 0.360275 0)
(1.36516 0.261281 0)
(1.58304 0.189448 0)
(1.75245 0.135511 0)
(1.87876 0.0925845 0)
(1.96582 0.0558335 0)
(2.01537 0.0216873 0)
(2.02683 -0.0129828 0)
(1.99687 -0.0518294 0)
(1.91835 -0.100369 0)
(1.77873 -0.168626 0)
(1.55832 -0.275928 0)
(1.22813 -0.457016 0)
(0.757433 -0.756388 0)
(0.246577 -1.14499 0)
(0.115226 -1.12904 0)
(1.01249 0.496425 0)
(1.30916 0.438616 0)
(1.83531 0.27346 0)
(2.23957 0.167549 0)
(2.49489 0.105298 0)
(2.66432 0.0673137 0)
(2.7831 0.0435322 0)
(2.86683 0.0280604 0)
(2.92418 0.0172528 0)
(2.96034 0.00893021 0)
(2.97797 0.0017604 0)
(2.97778 -0.00519149 0)
(2.95865 -0.0128986 0)
(2.91706 -0.0227685 0)
(2.84522 -0.0376597 0)
(2.72685 -0.0642155 0)
(2.52398 -0.118203 0)
(2.14277 -0.232599 0)
(1.53933 -0.439613 0)
(1.12371 -0.534365 0)
)
;

boundaryField
{
    movingWall
    {
        type            fixedValue;
        value           uniform (3.5 0 0);
    }
    fixedWalls
    {
        type            noSlip;
    }
    frontAndBack
    {
        type            empty;
    }
}


// ************************************************************************* //
