/*--------------------------------*- C++ -*----------------------------------*\
  =========                 |
  \\      /  F ield         | OpenFOAM: The Open Source CFD Toolbox
   \\    /   O peration     | Website:  https://openfoam.org
    \\  /    A nd           | Version:  8
     \\/     M anipulation  |
\*---------------------------------------------------------------------------*/
FoamFile
{
    version     2.0;
    format      ascii;
    class       surfaceScalarField;
    location    "0.3";
    object      phi;
}
// * * * * * * * * * * * * * * * * * * * * * * * * * * * * * * * * * * * * * //

dimensions      [0 3 -1 0 0 0 0];

internalField   nonuniform List<scalar> 
760
(
5.02908e-08
-5.05633e-08
-9.95475e-08
1.49838e-07
-4.58723e-07
3.59176e-07
-9.59937e-07
5.01215e-07
-1.53034e-06
5.70402e-07
-2.10491e-06
5.74576e-07
-2.62833e-06
5.23418e-07
-3.05404e-06
4.25707e-07
-3.34333e-06
2.89291e-07
-3.46605e-06
1.22719e-07
-3.40326e-06
-6.27893e-08
-3.15134e-06
-2.51912e-07
-2.72635e-06
-4.24994e-07
-2.16707e-06
-5.59282e-07
-1.53524e-06
-6.31832e-07
-9.11345e-07
-6.23894e-07
-3.84997e-07
-5.2635e-07
-3.96686e-08
-3.45327e-07
7.26898e-08
-1.12355e-07
7.26933e-08
-1.46634e-07
9.60709e-08
-7.32317e-07
7.35522e-07
-1.7221e-06
1.34896e-06
-2.99268e-06
1.77179e-06
-4.39824e-06
1.97596e-06
-5.79674e-06
1.97308e-06
-7.06014e-06
1.78681e-06
-8.07791e-06
1.44348e-06
-8.75909e-06
9.70463e-07
-9.03574e-06
3.99374e-07
-8.86904e-06
-2.29486e-07
-8.2569e-06
-8.64053e-07
-7.2414e-06
-1.44049e-06
-5.91311e-06
-1.88757e-06
-4.40925e-06
-2.13569e-06
-2.90279e-06
-2.13036e-06
-1.58044e-06
-1.84871e-06
-6.09439e-07
-1.31633e-06
-9.30136e-08
-6.28787e-07
-2.03176e-08
-3.80868e-07
4.76936e-07
-1.43571e-06
1.79036e-06
-3.02543e-06
2.93869e-06
-4.96634e-06
3.71269e-06
-7.06005e-06
4.06968e-06
-9.11443e-06
4.02746e-06
-1.09545e-05
3.62688e-06
-1.2428e-05
2.91701e-06
-1.34098e-05
1.95224e-06
-1.38073e-05
7.96825e-07
-1.35684e-05
-4.68342e-07
-1.26914e-05
-1.74108e-06
-1.12334e-05
-2.89849e-06
-9.3159e-06
-3.80505e-06
-7.12246e-06
-4.32913e-06
-4.88514e-06
-4.36767e-06
-2.85749e-06
-3.87635e-06
-1.2744e-06
-2.89942e-06
-3.03572e-07
-1.59962e-06
-3.23888e-07
-5.9461e-07
1.07154e-06
-2.10147e-06
3.29722e-06
-4.26236e-06
5.09958e-06
-6.82055e-06
6.27088e-06
-9.52749e-06
6.77663e-06
-1.21524e-05
6.65239e-06
-1.44883e-05
5.96277e-06
-1.63556e-05
4.78433e-06
-1.76063e-05
3.20286e-06
-1.81294e-05
1.32002e-06
-1.78606e-05
-7.37181e-07
-1.6792e-05
-2.80965e-06
-1.49838e-05
-4.70668e-06
-1.25719e-05
-6.21697e-06
-9.7686e-06
-7.13246e-06
-6.85134e-06
-7.28493e-06
-4.1358e-06
-6.5919e-06
-1.93346e-06
-5.10176e-06
-5.01208e-07
-3.03187e-06
-8.25093e-07
-7.86022e-07
1.85756e-06
-2.71523e-06
5.22644e-06
-5.41406e-06
7.79841e-06
-8.54898e-06
9.4058e-06
-1.18219e-05
1.00496e-05
-1.49695e-05
9.8e-06
-1.77618e-05
8.75507e-06
-2.00012e-05
7.02372e-06
-2.15236e-05
4.72525e-06
-2.22028e-05
1.99924e-06
-2.1959e-05
-9.81045e-07
-2.07701e-05
-3.99848e-06
-1.86864e-05
-6.79037e-06
-1.58431e-05
-9.0603e-06
-1.24681e-05
-1.05075e-05
-8.8779e-06
-1.08751e-05
-5.45472e-06
-1.00151e-05
-2.60322e-06
-7.95326e-06
-6.9246e-07
-4.94263e-06
-1.51755e-06
-9.59765e-07
2.81733e-06
-3.28075e-06
7.54742e-06
-6.48224e-06
1.09999e-05
-1.01556e-05
1.30792e-05
-1.39558e-05
1.38497e-05
-1.75919e-05
1.34362e-05
-2.08183e-05
1.19815e-05
-2.34266e-05
9.63196e-06
-2.52418e-05
6.54052e-06
-2.61239e-05
2.88131e-06
-2.59737e-05
-1.13121e-06
-2.4746e-05
-5.22624e-06
-2.24667e-05
-9.06968e-06
-1.92539e-05
-1.2273e-05
-1.53369e-05
-1.44245e-05
-1.1064e-05
-1.51481e-05
-6.88948e-06
-1.41896e-05
-3.33079e-06
-1.1512e-05
-8.96536e-07
-7.37688e-06
-2.41408e-06
-1.1198e-06
3.93713e-06
-3.80337e-06
1.0231e-05
-7.4695e-06
1.4666e-05
-1.16381e-05
1.72478e-05
-1.59213e-05
1.81329e-05
-2.00073e-05
1.75222e-05
-2.36424e-05
1.56166e-05
-2.66154e-05
1.2605e-05
-2.87468e-05
8.67185e-06
-2.98846e-05
4.01915e-06
-2.99082e-05
-1.10758e-06
-2.874e-05
-6.39444e-06
-2.63669e-05
-1.14428e-05
-2.28701e-05
-1.57698e-05
-1.84595e-05
-1.88351e-05
-1.35012e-05
-2.01064e-05
-8.52186e-06
-1.91689e-05
-4.17165e-06
-1.58622e-05
-1.13525e-06
-1.04133e-05
-3.54933e-06
-1.26881e-06
5.20594e-06
-4.2866e-06
1.32488e-05
-8.37383e-06
1.87533e-05
-1.29818e-05
2.18557e-05
-1.76856e-05
2.28367e-05
-2.21611e-05
2.19977e-05
-2.6157e-05
1.96125e-05
-2.94695e-05
1.59175e-05
-3.19238e-05
1.11261e-05
-3.33623e-05
5.45772e-06
-3.36437e-05
-8.26173e-07
-3.2652e-05
-7.38616e-06
-3.03201e-05
-1.37747e-05
-2.6669e-05
-1.94209e-05
-2.18597e-05
-2.36444e-05
-1.62488e-05
-2.57174e-05
-1.0423e-05
-2.49947e-05
-5.18099e-06
-2.11042e-05
-1.43116e-06
-1.41631e-05
-4.98049e-06
-1.40941e-06
6.61535e-06
-4.73384e-06
1.65732e-05
-9.19029e-06
2.32097e-05
-1.41614e-05
2.68269e-05
-1.91921e-05
2.78674e-05
-2.39573e-05
2.67629e-05
-2.82224e-05
2.38776e-05
-3.18062e-05
1.95012e-05
-3.45521e-05
1.3872e-05
-3.63088e-05
7.21446e-06
-3.69213e-05
-2.13657e-07
-3.62349e-05
-8.07254e-06
-3.41173e-05
-1.58924e-05
-3.05032e-05
-2.3035e-05
-2.54658e-05
-2.86817e-05
-1.93063e-05
-3.18769e-05
-1.26373e-05
-3.16637e-05
-6.40829e-06
-2.73332e-05
-1.8076e-06
-1.87638e-05
-6.78809e-06
-1.54719e-06
8.16254e-06
-5.15472e-06
2.01807e-05
-9.91834e-06
2.79733e-05
-1.51474e-05
3.20559e-05
-2.03652e-05
3.30852e-05
-2.52622e-05
3.166e-05
-2.96396e-05
2.8255e-05
-3.33587e-05
2.32204e-05
-3.63016e-05
1.68148e-05
-3.83416e-05
9.25448e-06
-3.93257e-05
7.70379e-07
-3.90692e-05
-8.32898e-06
-3.73711e-05
-1.75905e-05
-3.40577e-05
-2.63485e-05
-2.90672e-05
-3.36722e-05
-2.25786e-05
-3.83655e-05
-1.51628e-05
-3.90794e-05
-7.8922e-06
-3.46038e-05
-2.28994e-06
-2.43661e-05
-9.07802e-06
-1.69611e-06
9.85865e-06
-5.57557e-06
2.40602e-05
-1.05734e-05
3.29712e-05
-1.59159e-05
3.73984e-05
-2.11181e-05
3.82873e-05
-2.59096e-05
3.64514e-05
-3.01537e-05
3.24991e-05
-3.37805e-05
2.68473e-05
-3.67361e-05
1.97704e-05
-3.89441e-05
1.14625e-05
-4.02782e-05
2.10451e-06
-4.05453e-05
-8.06192e-06
-3.94857e-05
-1.86501e-05
-3.68058e-05
-2.90283e-05
-3.22637e-05
-3.82144e-05
-2.58295e-05
-4.47996e-05
-1.79216e-05
-4.69874e-05
-9.65212e-06
-4.28732e-05
-2.90776e-06
-3.11104e-05
-1.19858e-05
-1.88712e-06
1.17458e-05
-6.05373e-06
2.82268e-05
-1.11993e-05
3.81168e-05
-1.6455e-05
4.26542e-05
-2.13532e-05
4.31855e-05
-2.56992e-05
4.07974e-05
-2.94542e-05
3.6254e-05
-3.26485e-05
3.00416e-05
-3.53214e-05
2.24433e-05
-3.74766e-05
1.36177e-05
-3.9047e-05
3.67498e-06
-3.9865e-05
-7.24401e-06
-3.96418e-05
-1.88732e-05
-3.7975e-05
-3.06952e-05
-3.44125e-05
-4.17769e-05
-2.86235e-05
-5.05886e-05
-2.07157e-05
-5.48952e-05
-1.1672e-05
-5.19169e-05
-3.69785e-06
-3.90846e-05
-1.56836e-05
-2.18217e-06
1.39279e-05
-6.69439e-06
3.2739e-05
-1.1873e-05
4.32954e-05
-1.67541e-05
4.75353e-05
-2.09407e-05
4.73721e-05
-2.43725e-05
4.42292e-05
-2.71552e-05
3.90368e-05
-2.94545e-05
3.23408e-05
-3.14307e-05
2.44194e-05
-3.31954e-05
1.53824e-05
-3.47747e-05
5.25425e-06
-3.6069e-05
-5.94965e-06
-3.68112e-05
-1.8131e-05
-3.65334e-05
-3.09729e-05
-3.45824e-05
-4.37279e-05
-3.02552e-05
-5.49159e-05
-2.31599e-05
-6.19905e-05
-1.38683e-05
-6.12084e-05
-4.7069e-06
-4.8246e-05
-2.03905e-05
-2.69623e-06
1.66242e-05
-7.66185e-06
3.77046e-05
-1.26804e-05
4.83139e-05
-1.67445e-05
5.15995e-05
-1.96393e-05
5.02668e-05
-2.15299e-05
4.61198e-05
-2.2725e-05
4.02318e-05
-2.35569e-05
3.31728e-05
-2.4325e-05
2.51875e-05
-2.52638e-05
1.63212e-05
-2.65154e-05
6.50584e-06
-2.809e-05
-4.37503e-06
-2.9806e-05
-1.6415e-05
-3.1213e-05
-2.95659e-05
-3.15277e-05
-4.34132e-05
-2.96713e-05
-5.67723e-05
-2.45812e-05
-6.70806e-05
-1.6024e-05
-6.97656e-05
-5.98766e-06
-5.82824e-05
-2.63782e-05
-3.62518e-06
2.02494e-05
-9.1541e-06
4.32336e-05
-1.36006e-05
5.27605e-05
-1.61183e-05
5.41171e-05
-1.68887e-05
5.10373e-05
-1.64318e-05
4.56629e-05
-1.53163e-05
3.91163e-05
-1.4055e-05
3.19115e-05
-1.3077e-05
2.42096e-05
-1.27266e-05
1.59707e-05
-1.32589e-05
7.03822e-06
-1.48152e-05
-2.81878e-06
-1.73607e-05
-1.38695e-05
-2.05744e-05
-2.63522e-05
-2.36942e-05
-4.02934e-05
-2.53875e-05
-5.50789e-05
-2.38634e-05
-6.86046e-05
-1.76457e-05
-7.59833e-05
-7.56093e-06
-6.83672e-05
-3.39391e-05
-5.2429e-06
2.54923e-05
-1.12256e-05
4.92163e-05
-1.41427e-05
5.56776e-05
-1.38733e-05
5.38477e-05
-1.1355e-05
4.85189e-05
-7.59812e-06
4.19061e-05
-3.44567e-06
3.49639e-05
4.49825e-07
2.8016e-05
3.58838e-06
2.1071e-05
5.57387e-06
1.39853e-05
6.08329e-06
6.52879e-06
4.86328e-06
-1.59877e-06
1.77126e-06
-1.07774e-05
-3.11284e-06
-2.14681e-05
-9.26704e-06
-3.41392e-05
-1.54026e-05
-4.89434e-05
-1.92002e-05
-6.4807e-05
-1.76536e-05
-7.75299e-05
-9.26013e-06
-7.67607e-05
-4.31993e-05
-7.72276e-06
3.3215e-05
-1.30972e-05
5.45907e-05
-1.23494e-05
5.49298e-05
-7.30559e-06
4.88039e-05
-7.50955e-08
4.12884e-05
7.84743e-06
3.39836e-05
1.54755e-05
2.73358e-05
2.21695e-05
2.1322e-05
2.74928e-05
1.57477e-05
3.11097e-05
1.03684e-05
3.27199e-05
4.91857e-06
3.20248e-05
-9.03696e-07
2.8732e-05
-7.48463e-06
2.26204e-05
-1.53565e-05
1.37456e-05
-2.52645e-05
2.8874e-06
-3.80852e-05
-7.72391e-06
-5.41957e-05
-1.37991e-05
-7.14547e-05
-1.03159e-05
-8.02439e-05
-5.35152e-05
-1.0318e-05
4.3533e-05
-1.09498e-05
5.52225e-05
-2.38619e-06
4.63662e-05
9.91266e-06
3.65051e-05
2.28389e-05
2.83622e-05
3.49384e-05
2.18841e-05
4.55273e-05
1.67468e-05
5.42819e-05
1.25675e-05
6.10307e-05
8.99893e-06
6.5637e-05
5.76204e-06
6.79316e-05
2.624e-06
6.76694e-05
-6.41504e-07
6.44968e-05
-4.31199e-06
5.79389e-05
-8.79864e-06
4.74731e-05
-1.47986e-05
3.2868e-05
-2.348e-05
1.51483e-05
-3.6476e-05
-1.54158e-06
-5.47649e-05
-8.47734e-06
-7.33081e-05
-6.19925e-05
-6.17416e-06
4.97072e-05
9.09021e-06
3.99581e-05
3.04326e-05
2.50239e-05
5.02746e-05
1.6663e-05
6.70743e-05
1.15625e-05
8.08115e-05
8.14691e-06
9.17692e-05
5.78909e-06
0.00010025
4.08621e-06
0.000106486
2.76335e-06
0.000110604
1.64456e-06
0.000112615
6.12413e-07
0.000112407
-4.33017e-07
0.000109687
-1.59238e-06
0.000103922
-3.03358e-06
9.42019e-05
-5.07861e-06
7.9161e-05
-8.43907e-06
5.73869e-05
-1.47019e-05
2.94611e-05
-2.68391e-05
3.6087e-06
-4.74557e-05
-5.83838e-05
4.97072e-05
8.96653e-05
0.000114689
0.000131352
0.000142915
0.000151062
0.000156851
0.000160937
0.0001637
0.000165345
0.000165957
0.000165524
0.000163932
0.000160898
0.00015582
0.000147381
0.000132679
0.00010584
5.83838e-05
)
;

boundaryField
{
    movingWall
    {
        type            calculated;
        value           uniform 0;
    }
    fixedWalls
    {
        type            calculated;
        value           uniform 0;
    }
    frontAndBack
    {
        type            empty;
        value           nonuniform List<scalar> 0();
    }
}


// ************************************************************************* //
