/*--------------------------------*- C++ -*----------------------------------*\
  =========                 |
  \\      /  F ield         | OpenFOAM: The Open Source CFD Toolbox
   \\    /   O peration     | Website:  https://openfoam.org
    \\  /    A nd           | Version:  8
     \\/     M anipulation  |
\*---------------------------------------------------------------------------*/
FoamFile
{
    version     2.0;
    format      ascii;
    class       volVectorField;
    location    "0.3";
    object      U;
}
// * * * * * * * * * * * * * * * * * * * * * * * * * * * * * * * * * * * * * //

dimensions      [0 1 -1 0 0 0 0];

internalField   nonuniform List<vector> 
400
(
(0.000935453 -0.000936235 0)
(0.000355763 0.000501132 0)
(-0.00488139 0.00220594 0)
(-0.0137616 0.00336441 0)
(-0.0247605 0.00393714 0)
(-0.0364681 0.00401499 0)
(-0.0476719 0.0036905 0)
(-0.0573506 0.00303499 0)
(-0.0646491 0.00210196 0)
(-0.0688708 0.000944513 0)
(-0.0695115 -0.000364625 0)
(-0.0663302 -0.00171865 0)
(-0.0594385 -0.00297191 0)
(-0.0493805 -0.00394831 0)
(-0.0371723 -0.00446339 0)
(-0.0242672 -0.00435895 0)
(-0.0124196 -0.00354723 0)
(-0.003434 -0.00206038 0)
(0.00121812 -0.000165746 0)
(0.00115585 0.00112118 0)
(-0.000438378 -0.000449664 0)
(-0.00673958 0.00670397 0)
(-0.0228571 0.0141276 0)
(-0.0461776 0.0192888 0)
(-0.0736348 0.021837 0)
(-0.102318 0.0219678 0)
(-0.129507 0.0199981 0)
(-0.1528 0.0162458 0)
(-0.170165 0.0110161 0)
(-0.179992 0.0046506 0)
(-0.181182 -0.00240843 0)
(-0.173293 -0.00957237 0)
(-0.1567 -0.0161012 0)
(-0.132725 -0.0211525 0)
(-0.103675 -0.0238901 0)
(-0.0727284 -0.0236464 0)
(-0.0435963 -0.0201245 0)
(-0.0199554 -0.0136121 0)
(-0.00486702 -0.00532751 0)
(0.000104727 0.00135823 0)
(-0.0022841 0.00481485 0)
(-0.0151762 0.0230548 0)
(-0.0422688 0.0399315 0)
(-0.0786812 0.0515457 0)
(-0.120014 0.0570966 0)
(-0.162396 0.0568345 0)
(-0.202146 0.0513737 0)
(-0.235962 0.0414381 0)
(-0.261043 0.0278114 0)
(-0.275182 0.0114118 0)
(-0.276891 -0.00659695 0)
(-0.265592 -0.0247295 0)
(-0.241805 -0.0411859 0)
(-0.207309 -0.0539744 0)
(-0.165193 -0.061163 0)
(-0.11971 -0.0612521 0)
(-0.0758441 -0.0536298 0)
(-0.0385994 -0.0390294 0)
(-0.0125899 -0.0200609 0)
(-0.00147379 -0.00257189 0)
(-0.0039301 0.0146398 0)
(-0.0230952 0.0488519 0)
(-0.0607751 0.077735 0)
(-0.109464 0.096957 0)
(-0.163343 0.105615 0)
(-0.217746 0.104166 0)
(-0.268318 0.0936209 0)
(-0.311162 0.0752098 0)
(-0.342975 0.0503165 0)
(-0.361135 0.0205852 0)
(-0.363844 -0.0119209 0)
(-0.350332 -0.0446113 0)
(-0.321079 -0.0743849 0)
(-0.278025 -0.0978274 0)
(-0.224676 -0.111619 0)
(-0.166027 -0.113143 0)
(-0.108122 -0.101238 0)
(-0.0573132 -0.0769271 0)
(-0.0201189 -0.0440847 0)
(-0.00288569 -0.0106259 0)
(-0.00535815 0.0285167 0)
(-0.0302976 0.0833606 0)
(-0.0779579 0.12652 0)
(-0.138186 0.154107 0)
(-0.203711 0.165651 0)
(-0.269141 0.162116 0)
(-0.329611 0.145075 0)
(-0.380828 0.116357 0)
(-0.419157 0.0780052 0)
(-0.441668 0.0324378 0)
(-0.446256 -0.0173329 0)
(-0.431846 -0.0675402 0)
(-0.398658 -0.113663 0)
(-0.348496 -0.150669 0)
(-0.284984 -0.173556 0)
(-0.213634 -0.178209 0)
(-0.141521 -0.162479 0)
(-0.0765547 -0.127267 0)
(-0.0276069 -0.0773682 0)
(-0.00417253 -0.0225224 0)
(-0.00662953 0.0460367 0)
(-0.0368801 0.126 0)
(-0.0938551 0.185697 0)
(-0.164874 0.222381 0)
(-0.241253 0.236572 0)
(-0.316948 0.230116 0)
(-0.386712 0.205362 0)
(-0.446011 0.164837 0)
(-0.491016 0.111266 0)
(-0.518562 0.0478098 0)
(-0.526214 -0.0216211 0)
(-0.512463 -0.0921151 0)
(-0.477028 -0.157693 0)
(-0.421257 -0.211536 0)
(-0.348557 -0.246612 0)
(-0.26472 -0.256764 0)
(-0.177807 -0.238192 0)
(-0.0975436 -0.191017 0)
(-0.0356939 -0.120526 0)
(-0.00551296 -0.0383018 0)
(-0.0077941 0.0668869 0)
(-0.0429544 0.176184 0)
(-0.108558 0.254572 0)
(-0.189533 0.30104 0)
(-0.275864 0.317657 0)
(-0.360958 0.307566 0)
(-0.439334 0.274139 0)
(-0.506385 0.220702 0)
(-0.558233 0.150642 0)
(-0.591572 0.0677574 0)
(-0.603645 -0.0232906 0)
(-0.592396 -0.116591 0)
(-0.556801 -0.204772 0)
(-0.497391 -0.279118 0)
(-0.416932 -0.330192 0)
(-0.321111 -0.349109 0)
(-0.218794 -0.329475 0)
(-0.121704 -0.269661 0)
(-0.0451498 -0.174801 0)
(-0.00711014 -0.0584303 0)
(-0.00888652 0.0908203 0)
(-0.0486048 0.233338 0)
(-0.122113 0.33234 0)
(-0.212026 0.38912 0)
(-0.307092 0.40789 0)
(-0.40031 0.393544 0)
(-0.486162 0.350754 0)
(-0.560181 0.283745 0)
(-0.618651 0.196512 0)
(-0.658282 0.0933252 0)
(-0.676073 -0.020662 0)
(-0.669381 -0.138815 0)
(-0.636235 -0.25258 0)
(-0.575963 -0.351364 0)
(-0.490135 -0.423003 0)
(-0.383718 -0.455092 0)
(-0.265915 -0.437404 0)
(-0.150408 -0.365115 0)
(-0.0567821 -0.242111 0)
(-0.00918175 -0.0838257 0)
(-0.00994101 0.117637 0)
(-0.0539219 0.2969 0)
(-0.134558 0.418057 0)
(-0.232108 0.485337 0)
(-0.334162 0.505769 0)
(-0.433505 0.486529 0)
(-0.524849 0.433905 0)
(-0.604168 0.353129 0)
(-0.668199 0.248734 0)
(-0.713936 0.125228 0)
(-0.738334 -0.0120927 0)
(-0.738242 -0.156298 0)
(-0.710645 -0.29806 0)
(-0.653303 -0.425157 0)
(-0.565934 -0.522551 0)
(-0.451882 -0.573554 0)
(-0.319769 -0.562566 0)
(-0.18477 -0.479474 0)
(-0.0714118 -0.324998 0)
(-0.011975 -0.11587 0)
(-0.0110257 0.147207 0)
(-0.0591034 0.366337 0)
(-0.146063 0.510593 0)
(-0.249567 0.587919 0)
(-0.356098 0.60903 0)
(-0.4585 0.584035 0)
(-0.552089 0.521211 0)
(-0.633684 0.426926 0)
(-0.700878 0.306166 0)
(-0.751341 0.16341 0)
(-0.782337 0.00366203 0)
(-0.790474 -0.166426 0)
(-0.771772 -0.337407 0)
(-0.7222 -0.496007 0)
(-0.638944 -0.624549 0)
(-0.522545 -0.701522 0)
(-0.379552 -0.70426 0)
(-0.225423 -0.614468 0)
(-0.0898808 -0.426443 0)
(-0.0158014 -0.156433 0)
(-0.0123032 0.179573 0)
(-0.0646267 0.441263 0)
(-0.15717 0.608604 0)
(-0.264444 0.694424 0)
(-0.371886 0.714336 0)
(-0.472823 0.68221 0)
(-0.563704 0.608756 0)
(-0.642718 0.501615 0)
(-0.708833 0.366141 0)
(-0.760906 0.206502 0)
(-0.797017 0.0269351 0)
(-0.814018 -0.166879 0)
(-0.807321 -0.366275 0)
(-0.771149 -0.557932 0)
(-0.69964 -0.722348 0)
(-0.589229 -0.833242 0)
(-0.442256 -0.859365 0)
(-0.272147 -0.770574 0)
(-0.113057 -0.549535 0)
(-0.0210945 -0.207941 0)
(-0.0141355 0.215199 0)
(-0.0715095 0.521662 0)
(-0.169077 0.710527 0)
(-0.277227 0.801505 0)
(-0.38054 0.816901 0)
(-0.473554 0.775405 0)
(-0.554609 0.690632 0)
(-0.623938 0.571613 0)
(-0.682479 0.423962 0)
(-0.73085 0.251267 0)
(-0.768572 0.0565348 0)
(-0.793413 -0.15625 0)
(-0.800857 -0.380285 0)
(-0.783865 -0.603648 0)
(-0.733457 -0.806605 0)
(-0.640827 -0.959186 0)
(-0.501534 -1.02087 0)
(-0.32323 -0.945648 0)
(-0.141793 -0.696873 0)
(-0.0285002 -0.273503 0)
(-0.0172702 0.255444 0)
(-0.0816852 0.608239 0)
(-0.183896 0.814466 0)
(-0.288788 0.90448 0)
(-0.38075 0.909961 0)
(-0.456822 0.855676 0)
(-0.518337 0.758534 0)
(-0.568379 0.628932 0)
(-0.610452 0.472563 0)
(-0.647464 0.292177 0)
(-0.680963 0.0891751 0)
(-0.7104 -0.134783 0)
(-0.73229 -0.375844 0)
(-0.739361 -0.625234 0)
(-0.720206 -0.865412 0)
(-0.660378 -1.06527 0)
(-0.546165 -1.17611 0)
(-0.374366 -1.13288 0)
(-0.176733 -0.869471 0)
(-0.0390024 -0.357123 0)
(-0.0231594 0.303412 0)
(-0.0984719 0.702744 0)
(-0.204558 0.917689 0)
(-0.299501 0.996451 0)
(-0.369408 0.983941 0)
(-0.41611 0.912217 0)
(-0.445455 0.801485 0)
(-0.464221 0.663136 0)
(-0.47892 0.502563 0)
(-0.49502 0.321396 0)
(-0.516433 0.11921 0)
(-0.544897 -0.105019 0)
(-0.579005 -0.351194 0)
(-0.612785 -0.615385 0)
(-0.634129 -0.885251 0)
(-0.623984 -1.1328 0)
(-0.558062 -1.30515 0)
(-0.416723 -1.31795 0)
(-0.217645 -1.06466 0)
(-0.0540156 -0.463873 0)
(-0.0344101 0.365316 0)
(-0.126835 0.807854 0)
(-0.233423 1.0151 0)
(-0.306122 1.06654 0)
(-0.337551 1.02519 0)
(-0.338059 0.930801 0)
(-0.319789 0.805934 0)
(-0.293793 0.661908 0)
(-0.269536 0.503062 0)
(-0.254763 0.329553 0)
(-0.255518 0.139088 0)
(-0.275936 -0.0719566 0)
(-0.317444 -0.307401 0)
(-0.377084 -0.569217 0)
(-0.444817 -0.853137 0)
(-0.500141 -1.13984 0)
(-0.509692 -1.38001 0)
(-0.433475 -1.47563 0)
(-0.261314 -1.27235 0)
(-0.0750536 -0.599632 0)
(-0.0549226 0.452676 0)
(-0.171911 0.925289 0)
(-0.266669 1.09526 0)
(-0.293154 1.09662 0)
(-0.26092 1.01429 0)
(-0.193744 0.893651 0)
(-0.111161 0.756788 0)
(-0.0279725 0.612802 0)
(0.0445076 0.463726 0)
(0.0974976 0.307799 0)
(0.12391 0.141041 0)
(0.117928 -0.042144 0)
(0.0753005 -0.248701 0)
(-0.00529083 -0.48618 0)
(-0.119121 -0.759905 0)
(-0.249694 -1.06467 0)
(-0.360726 -1.36585 0)
(-0.393599 -1.56659 0)
(-0.295835 -1.4694 0)
(-0.101588 -0.770717 0)
(-0.0875464 0.586827 0)
(-0.230425 1.04836 0)
(-0.276381 1.12968 0)
(-0.21166 1.05409 0)
(-0.0808139 0.923436 0)
(0.0764797 0.780085 0)
(0.235698 0.639931 0)
(0.381432 0.50661 0)
(0.503447 0.378389 0)
(0.594385 0.251301 0)
(0.648122 0.120177 0)
(0.658771 -0.0213647 0)
(0.620334 -0.181541 0)
(0.527176 -0.371242 0)
(0.376279 -0.60393 0)
(0.173518 -0.89104 0)
(-0.0538203 -1.22456 0)
(-0.241812 -1.53465 0)
(-0.28835 -1.61071 0)
(-0.123652 -0.983692 0)
(-0.119023 0.797598 0)
(-0.257403 1.13693 0)
(-0.161283 1.05101 0)
(0.065568 0.883515 0)
(0.327807 0.717867 0)
(0.582674 0.572538 0)
(0.811846 0.449401 0)
(1.00652 0.344127 0)
(1.16236 0.250868 0)
(1.27666 0.164021 0)
(1.34664 0.0783092 0)
(1.36834 -0.0118383 0)
(1.33591 -0.113389 0)
(1.24103 -0.236587 0)
(1.07309 -0.397471 0)
(0.822668 -0.619526 0)
(0.491977 -0.926716 0)
(0.118435 -1.30781 0)
(-0.160429 -1.60544 0)
(-0.0989501 -1.21774 0)
(-0.0187444 1.0079 0)
(-0.0225017 1.05031 0)
(0.373309 0.769215 0)
(0.813598 0.553882 0)
(1.18641 0.403741 0)
(1.49101 0.29596 0)
(1.73681 0.217158 0)
(1.93036 0.157474 0)
(2.07691 0.109518 0)
(2.18018 0.0680707 0)
(2.24167 0.0292974 0)
(2.26049 -0.0101298 0)
(2.23278 -0.0540636 0)
(2.15065 -0.108355 0)
(2.00023 -0.183838 0)
(1.75944 -0.302045 0)
(1.39521 -0.503173 0)
(0.870544 -0.840469 0)
(0.293896 -1.28293 0)
(0.138131 -1.27149 0)
(1.12225 0.550627 0)
(1.44604 0.486925 0)
(2.0253 0.305232 0)
(2.47372 0.18865 0)
(2.75955 0.119835 0)
(2.95113 0.077507 0)
(3.08697 0.0507559 0)
(3.18396 0.0331846 0)
(3.25142 0.0207906 0)
(3.29491 0.0111585 0)
(3.31727 0.00281193 0)
(3.31921 -0.00527061 0)
(3.29952 -0.0141293 0)
(3.25444 -0.0252355 0)
(3.17563 -0.041587 0)
(3.04547 -0.0703065 0)
(2.8227 -0.128889 0)
(2.40253 -0.255056 0)
(1.72928 -0.487399 0)
(1.25986 -0.596781 0)
)
;

boundaryField
{
    movingWall
    {
        type            fixedValue;
        value           uniform (3.9 0 0);
    }
    fixedWalls
    {
        type            noSlip;
    }
    frontAndBack
    {
        type            empty;
    }
}


// ************************************************************************* //
