/*--------------------------------*- C++ -*----------------------------------*\
  =========                 |
  \\      /  F ield         | OpenFOAM: The Open Source CFD Toolbox
   \\    /   O peration     | Website:  https://openfoam.org
    \\  /    A nd           | Version:  8
     \\/     M anipulation  |
\*---------------------------------------------------------------------------*/
FoamFile
{
    version     2.0;
    format      ascii;
    class       surfaceScalarField;
    location    "0.3";
    object      phi;
}
// * * * * * * * * * * * * * * * * * * * * * * * * * * * * * * * * * * * * * //

dimensions      [0 3 -1 0 0 0 0];

internalField   nonuniform List<scalar> 
760
(
1.69338e-08
-1.69754e-08
-2.70136e-08
4.3947e-08
-1.37512e-07
1.10498e-07
-2.94733e-07
1.57222e-07
-4.7503e-07
1.80298e-07
-6.5613e-07
1.81101e-07
-8.18888e-07
1.62759e-07
-9.47915e-07
1.29027e-07
-1.03171e-06
8.37934e-08
-1.06273e-06
3.10209e-08
-1.03762e-06
-2.5107e-08
-9.57584e-07
-8.00377e-08
-8.28795e-07
-1.2879e-07
-6.62741e-07
-1.66055e-07
-4.76226e-07
-1.86517e-07
-2.90764e-07
-1.85463e-07
-1.30969e-07
-1.59795e-07
-2.15473e-08
-1.09422e-07
1.90284e-08
-4.05754e-08
1.90286e-08
-4.13955e-08
2.44203e-08
-2.17178e-07
2.19729e-07
-5.21526e-07
4.14844e-07
-9.17579e-07
5.53273e-07
-1.35813e-06
6.20844e-07
-1.79541e-06
6.18385e-07
-2.18632e-06
5.53673e-07
-2.4951e-06
4.37804e-07
-2.69464e-06
2.83326e-07
-2.76728e-06
1.03669e-07
-2.7056e-06
-8.67911e-08
-2.51309e-06
-2.72546e-07
-2.20489e-06
-4.36986e-07
-1.80803e-06
-5.62916e-07
-1.36077e-06
-6.33775e-07
-9.10468e-07
-6.35768e-07
-5.09134e-07
-5.6113e-07
-2.06105e-07
-4.12451e-07
-3.64797e-08
-2.10202e-07
-1.74508e-08
-1.11172e-07
1.35593e-07
-4.29382e-07
5.3794e-07
-9.18373e-07
9.03835e-07
-1.52236e-06
1.15726e-06
-2.17674e-06
1.27522e-06
-2.81698e-06
1.25863e-06
-3.3846e-06
1.12129e-06
-3.83069e-06
8.83897e-07
-4.11805e-06
5.70684e-07
-4.22247e-06
2.08087e-07
-4.13382e-06
-1.75444e-07
-3.85703e-06
-5.49338e-07
-3.41288e-06
-8.81138e-07
-2.83818e-06
-1.13762e-06
-2.18477e-06
-1.28718e-06
-1.51655e-06
-1.30398e-06
-9.03887e-07
-1.1738e-06
-4.14926e-07
-9.01411e-07
-1.04123e-07
-5.21006e-07
-1.21573e-07
-1.74875e-07
3.10467e-07
-6.3161e-07
9.94676e-07
-1.29862e-06
1.57084e-06
-2.09648e-06
1.95512e-06
-2.94315e-06
2.12189e-06
-3.76039e-06
2.07587e-06
-4.47869e-06
1.83959e-06
-5.04047e-06
1.44568e-06
-5.40206e-06
9.32274e-07
-5.53497e-06
3.40996e-07
-5.42701e-06
-2.83406e-07
-5.08338e-06
-8.92961e-07
-4.52771e-06
-1.43681e-06
-3.80247e-06
-1.86285e-06
-2.96836e-06
-2.1213e-06
-2.10155e-06
-2.17079e-06
-1.28832e-06
-1.98703e-06
-6.16723e-07
-1.57301e-06
-1.66378e-07
-9.71351e-07
-2.87951e-07
-2.32967e-07
5.43432e-07
-8.227e-07
1.58441e-06
-1.66231e-06
2.41045e-06
-2.64619e-06
2.939e-06
-3.67383e-06
3.14954e-06
-4.65428e-06
3.05632e-06
-5.50937e-06
2.69467e-06
-6.17565e-06
2.11196e-06
-6.60543e-06
1.36206e-06
-6.76744e-06
5.03008e-07
-6.64761e-06
-4.03239e-07
-6.25018e-06
-1.29039e-06
-5.59914e-06
-2.08786e-06
-4.73944e-06
-2.72255e-06
-3.73748e-06
-3.12326e-06
-2.67962e-06
-3.22865e-06
-1.66805e-06
-2.9986e-06
-8.13309e-07
-2.42775e-06
-2.24544e-07
-1.56012e-06
-5.12494e-07
-2.88354e-07
8.31785e-07
-1.00801e-06
2.30406e-06
-2.017e-06
3.41944e-06
-3.18202e-06
4.10401e-06
-4.38327e-06
4.35079e-06
-5.51769e-06
4.19075e-06
-6.50027e-06
3.67725e-06
-7.264e-06
2.87569e-06
-7.75922e-06
1.85728e-06
-7.9531e-06
6.96888e-07
-7.8297e-06
-5.2664e-07
-7.391e-06
-1.72909e-06
-6.65889e-06
-2.81997e-06
-5.6777e-06
-3.70373e-06
-4.51659e-06
-4.28437e-06
-3.27041e-06
-4.47482e-06
-2.05764e-06
-4.21138e-06
-1.01418e-06
-3.4712e-06
-2.82924e-07
-2.29138e-06
-7.95417e-07
-3.43951e-07
1.17573e-06
-1.19385e-06
3.15396e-06
-2.37105e-06
4.59665e-06
-3.71282e-06
5.44578e-06
-5.07968e-06
5.71765e-06
-6.35764e-06
5.4687e-06
-7.4571e-06
4.77671e-06
-8.31018e-06
3.72877e-06
-8.86767e-06
2.41477e-06
-9.09665e-06
9.25869e-07
-8.97947e-06
-6.43823e-07
-8.51449e-06
-2.19407e-06
-7.71874e-06
-3.61572e-06
-6.63225e-06
-4.79023e-06
-5.32312e-06
-5.5935e-06
-3.89193e-06
-5.90601e-06
-2.47305e-06
-5.63026e-06
-1.23045e-06
-4.7138e-06
-3.46143e-07
-3.17569e-06
-1.14156e-06
-4.0238e-07
1.57811e-06
-1.38603e-06
4.13761e-06
-2.73109e-06
5.94171e-06
-4.24283e-06
6.95753e-06
-5.76221e-06
7.23702e-06
-7.16655e-06
6.87305e-06
-8.36528e-06
5.97545e-06
-9.29355e-06
4.65704e-06
-9.90597e-06
3.02719e-06
-1.01718e-05
1.19165e-06
-1.00722e-05
-7.43424e-07
-9.60063e-06
-2.66559e-06
-8.76618e-06
-4.45017e-06
-7.59964e-06
-5.95677e-06
-6.16245e-06
-7.03068e-06
-4.55597e-06
-7.51249e-06
-2.92809e-06
-7.25814e-06
-1.4729e-06
-6.16898e-06
-4.18731e-07
-4.22985e-06
-1.56029e-06
-4.66198e-07
2.04431e-06
-1.58981e-06
5.26122e-06
-3.10132e-06
7.45322e-06
-4.77016e-06
8.62638e-06
-6.41859e-06
8.88545e-06
-7.91946e-06
8.37391e-06
-9.18685e-06
7.24284e-06
-1.01647e-05
5.63491e-06
-1.08164e-05
3.67885e-06
-1.11166e-05
1.49187e-06
-1.10469e-05
-8.13109e-07
-1.05949e-05
-3.11757e-06
-9.75801e-06
-5.28711e-06
-8.5516e-06
-7.16318e-06
-7.02236e-06
-8.55992e-06
-5.264e-06
-9.27085e-06
-3.43213e-06
-9.09001e-06
-1.75128e-06
-7.84983e-06
-5.05236e-07
-5.4759e-06
-2.06553e-06
-5.38664e-07
2.58297e-06
-1.81101e-06
6.53357e-06
-3.48392e-06
9.12612e-06
-5.28577e-06
1.04282e-05
-7.02274e-06
1.06224e-05
-8.57032e-06
9.9215e-06
-9.8559e-06
8.52842e-06
-1.08404e-05
6.61942e-06
-1.15026e-05
4.34108e-06
-1.18276e-05
1.81686e-06
-1.17997e-05
-8.41025e-07
-1.14004e-05
-3.5169e-06
-1.06117e-05
-6.07574e-06
-9.4266e-06
-8.34833e-06
-7.86576e-06
-1.01208e-05
-6.00223e-06
-1.11344e-05
-3.98798e-06
-1.11043e-05
-2.07437e-06
-9.76343e-06
-6.10791e-07
-6.93948e-06
-2.67632e-06
-6.25095e-07
3.20807e-06
-2.05792e-06
7.96639e-06
-3.87962e-06
1.09478e-05
-5.7717e-06
1.23203e-05
-7.53064e-06
1.23814e-05
-9.04638e-06
1.14372e-05
-1.02721e-05
9.75418e-06
-1.11967e-05
7.54401e-06
-1.18229e-05
4.96723e-06
-1.2152e-05
2.14598e-06
-1.21748e-05
-8.18188e-07
-1.18677e-05
-3.82404e-06
-1.11948e-05
-6.74865e-06
-1.01185e-05
-9.42456e-06
-8.62052e-06
-1.16188e-05
-6.73434e-06
-1.30206e-05
-4.58868e-06
-1.32499e-05
-2.4501e-06
-1.1902e-05
-7.42154e-07
-8.64743e-06
-3.41847e-06
-7.35144e-07
3.94321e-06
-2.34364e-06
9.57489e-06
-4.28707e-06
1.28913e-05
-6.19641e-06
1.42296e-05
-7.87246e-06
1.40574e-05
-9.23869e-06
1.28035e-05
-1.02914e-05
1.08069e-05
-1.10606e-05
8.31316e-06
-1.15821e-05
5.48876e-06
-1.18803e-05
2.44414e-06
-1.19568e-05
-7.41668e-07
-1.17854e-05
-3.99547e-06
-1.13118e-05
-7.22224e-06
-1.04623e-05
-1.02741e-05
-9.16485e-06
-1.29162e-05
-7.3897e-06
-1.47957e-05
-5.21126e-06
-1.54284e-05
-2.88512e-06
-1.42282e-05
-9.09434e-07
-1.06231e-05
-4.3279e-06
-8.8649e-07
4.82971e-06
-2.68797e-06
1.13764e-05
-4.69768e-06
1.4901e-05
-6.50247e-06
1.60344e-05
-7.93632e-06
1.54913e-05
-8.9856e-06
1.38527e-05
-9.71164e-06
1.1533e-05
-1.0199e-05
8.80054e-06
-1.05248e-05
5.81451e-06
-1.0741e-05
2.66039e-06
-1.08648e-05
-6.17905e-07
-1.08716e-05
-3.98865e-06
-1.06923e-05
-7.40154e-06
-1.0216e-05
-1.07504e-05
-9.3064e-06
-1.38257e-05
-7.84372e-06
-1.62584e-05
-5.8041e-06
-1.7468e-05
-3.3821e-06
-1.66502e-05
-1.1288e-06
-1.28764e-05
-5.45671e-06
-1.1103e-06
5.94001e-06
-3.1149e-06
1.3381e-05
-5.07808e-06
1.68641e-05
-6.57786e-06
1.75342e-05
-7.53617e-06
1.64496e-05
-8.0441e-06
1.43607e-05
-8.25125e-06
1.17401e-05
-8.30621e-06
8.8555e-06
-8.32903e-06
5.83734e-06
-8.39979e-06
2.73115e-06
-8.55291e-06
-4.64779e-07
-8.77165e-06
-3.76991e-06
-8.981e-06
-7.19219e-06
-9.04159e-06
-1.06898e-05
-8.75307e-06
-1.41143e-05
-7.88462e-06
-1.71268e-05
-6.26049e-06
-1.90921e-05
-3.92985e-06
-1.89808e-05
-1.42578e-06
-1.53805e-05
-6.88249e-06
-1.45596e-06
7.39597e-06
-3.63336e-06
1.55584e-05
-5.32149e-06
1.85523e-05
-6.19315e-06
1.84059e-05
-6.35191e-06
1.66083e-05
-6.04315e-06
1.40519e-05
-5.5197e-06
1.12166e-05
-4.99e-06
8.32579e-06
-4.60631e-06
5.45365e-06
-4.46738e-06
2.59222e-06
-4.62196e-06
-3.10197e-07
-5.06682e-06
-3.32504e-06
-5.7367e-06
-6.52232e-06
-6.48671e-06
-9.93981e-06
-7.07392e-06
-1.35271e-05
-7.15792e-06
-1.70428e-05
-6.36323e-06
-1.98868e-05
-4.47168e-06
-2.08724e-05
-1.83415e-06
-1.8018e-05
-8.71664e-06
-1.97833e-06
9.3743e-06
-4.16142e-06
1.77415e-05
-5.12551e-06
1.95164e-05
-4.87513e-06
1.81555e-05
-3.82757e-06
1.55608e-05
-2.41666e-06
1.2641e-05
-9.83285e-07
9.78327e-06
2.35984e-07
7.10652e-06
1.08764e-06
4.602e-06
1.47681e-06
2.20304e-06
1.3513e-06
-1.84688e-07
6.97609e-07
-2.67135e-06
-4.48808e-07
-5.3759e-06
-1.97634e-06
-8.41228e-06
-3.65297e-06
-1.18504e-05
-5.07744e-06
-1.56184e-05
-5.67086e-06
-1.92934e-05
-4.81343e-06
-2.17298e-05
-2.36842e-06
-2.0463e-05
-1.10851e-05
-2.65535e-06
1.20296e-05
-4.29394e-06
1.93801e-05
-3.71426e-06
1.89367e-05
-1.67711e-06
1.61184e-05
9.77689e-07
1.2906e-05
3.67127e-06
9.94745e-06
6.05523e-06
7.39931e-06
7.93766e-06
5.2241e-06
9.21709e-06
3.32256e-06
9.83698e-06
1.58316e-06
9.75977e-06
-1.07483e-07
8.95746e-06
-1.86904e-06
7.41764e-06
-3.83607e-06
5.17144e-06
-6.16608e-06
2.35371e-06
-9.0327e-06
-6.95207e-07
-1.25694e-05
-3.30197e-06
-1.66866e-05
-4.39606e-06
-2.06357e-05
-2.91529e-06
-2.19438e-05
-1.40003e-05
-3.09875e-06
1.51284e-05
-2.6845e-06
1.89658e-05
7.32117e-07
1.55201e-05
5.18329e-06
1.16672e-05
9.55585e-06
8.5334e-06
1.33614e-05
6.14192e-06
1.64202e-05
4.34046e-06
1.86924e-05
2.95188e-06
2.01879e-05
1.82708e-06
2.09203e-05
8.50797e-07
2.08845e-05
-7.16516e-08
2.00466e-05
-1.03118e-06
1.83428e-05
-2.13224e-06
1.56917e-05
-3.51505e-06
1.20397e-05
-5.38063e-06
7.47246e-06
-8.00224e-06
2.45e-06
-1.16642e-05
-1.78636e-06
-1.63993e-05
-2.93216e-06
-2.0798e-05
-1.69325e-05
-1.01504e-06
1.61434e-05
4.7376e-06
1.32132e-05
1.21359e-05
8.12172e-06
1.87044e-05
5.09873e-06
2.39475e-05
3.29031e-06
2.79363e-05
2.15311e-06
3.08612e-05
1.4155e-06
3.29016e-05
9.11472e-07
3.419e-05
5.38737e-07
3.48061e-05
2.34706e-07
3.47778e-05
-4.33252e-08
3.40779e-05
-3.31364e-07
3.26178e-05
-6.72079e-07
3.02324e-05
-1.12966e-06
2.66691e-05
-1.81731e-06
2.16099e-05
-2.94308e-06
1.48308e-05
-4.88501e-06
6.74643e-06
-8.315e-06
-7.13126e-08
-1.39803e-05
-1.70038e-05
1.61434e-05
2.93566e-05
3.74783e-05
4.25771e-05
4.58674e-05
4.80205e-05
4.9436e-05
5.03475e-05
5.08862e-05
5.11209e-05
5.10776e-05
5.07462e-05
5.00741e-05
4.89445e-05
4.71272e-05
4.41841e-05
3.92991e-05
3.09841e-05
1.70038e-05
)
;

boundaryField
{
    movingWall
    {
        type            calculated;
        value           uniform 0;
    }
    fixedWalls
    {
        type            calculated;
        value           uniform 0;
    }
    frontAndBack
    {
        type            empty;
        value           nonuniform List<scalar> 0();
    }
}


// ************************************************************************* //
