/*--------------------------------*- C++ -*----------------------------------*\
  =========                 |
  \\      /  F ield         | OpenFOAM: The Open Source CFD Toolbox
   \\    /   O peration     | Website:  https://openfoam.org
    \\  /    A nd           | Version:  8
     \\/     M anipulation  |
\*---------------------------------------------------------------------------*/
FoamFile
{
    version     2.0;
    format      ascii;
    class       volVectorField;
    location    "0.3";
    object      U;
}
// * * * * * * * * * * * * * * * * * * * * * * * * * * * * * * * * * * * * * //

dimensions      [0 1 -1 0 0 0 0];

internalField   nonuniform List<vector> 
400
(
(0.000302605 -0.00029929 0)
(0.000164035 0.000135678 0)
(-0.00142067 0.00067794 0)
(-0.0041834 0.00106007 0)
(-0.00765177 0.00125142 0)
(-0.011353 0.00127076 0)
(-0.0148661 0.00114775 0)
(-0.0178427 0.000913422 0)
(-0.0200125 0.000596924 0)
(-0.021184 0.000226243 0)
(-0.0212471 -0.000169709 0)
(-0.0201787 -0.000559132 0)
(-0.0180515 -0.000906233 0)
(-0.0150418 -0.00117143 0)
(-0.0114346 -0.00131317 0)
(-0.00761906 -0.00129216 0)
(-0.00406728 -0.00107895 0)
(-0.00129015 -0.000666059 0)
(0.000243536 -0.000105292 0)
(0.000323388 0.000316551 0)
(-9.64781e-05 -0.000197429 0)
(-0.00194545 0.00198168 0)
(-0.00684801 0.00434188 0)
(-0.0140743 0.00603344 0)
(-0.0226686 0.00687741 0)
(-0.031662 0.00689822 0)
(-0.0401315 0.0061988 0)
(-0.0472778 0.00491421 0)
(-0.0524669 0.00319026 0)
(-0.0552478 0.00117905 0)
(-0.0553662 -0.000957947 0)
(-0.0527796 -0.00304567 0)
(-0.0476724 -0.00489441 0)
(-0.0404671 -0.00630467 0)
(-0.0318234 -0.00708022 0)
(-0.0226137 -0.0070525 0)
(-0.0138547 -0.00611961 0)
(-0.0065891 -0.00430155 0)
(-0.00177478 -0.0018581 0)
(-4.6245e-05 0.000281195 0)
(-0.000639684 0.00132425 0)
(-0.00447011 0.00690074 0)
(-0.0127284 0.0122706 0)
(-0.0240034 0.0160696 0)
(-0.0369115 0.0179031 0)
(-0.050158 0.0177756 0)
(-0.0624998 0.0158911 0)
(-0.0728472 0.0125544 0)
(-0.0803309 0.00811886 0)
(-0.0843316 0.0029672 0)
(-0.0845012 -0.00248924 0)
(-0.0807839 -0.00780758 0)
(-0.0734342 -0.0125159 0)
(-0.0630297 -0.0161294 0)
(-0.0504665 -0.0181855 0)
(-0.0369237 -0.0183051 0)
(-0.0237685 -0.0162829 0)
(-0.0124034 -0.0122045 0)
(-0.0042354 -0.00663365 0)
(-0.000565116 -0.00111846 0)
(-0.00112096 0.00420177 0)
(-0.00684934 0.0146925 0)
(-0.0183832 0.0239042 0)
(-0.0335045 0.0302003 0)
(-0.0503575 0.0330592 0)
(-0.0673604 0.0325126 0)
(-0.0830305 0.028906 0)
(-0.0960814 0.0227597 0)
(-0.105492 0.0146867 0)
(-0.110536 0.00535885 0)
(-0.110802 -0.00450005 0)
(-0.106214 -0.0141131 0)
(-0.0970587 -0.0226571 0)
(-0.0839956 -0.0292914 0)
(-0.0680652 -0.0332184 0)
(-0.0506581 -0.0337857 0)
(-0.0334169 -0.0306315 0)
(-0.0180829 -0.0238602 0)
(-0.00658057 -0.0142699 0)
(-0.00102497 -0.00383431 0)
(-0.00154289 0.00829268 0)
(-0.00906124 0.0251792 0)
(-0.0237736 0.0389979 0)
(-0.0426157 0.0480568 0)
(-0.0632198 0.0518556 0)
(-0.0837175 0.0505522 0)
(-0.102425 0.0447018 0)
(-0.117914 0.0350891 0)
(-0.129068 0.022625 0)
(-0.135097 0.00830186 0)
(-0.135541 -0.00681534 0)
(-0.130298 -0.0215858 0)
(-0.119643 -0.0347995 0)
(-0.104261 -0.0452137 0)
(-0.0852675 -0.0516353 0)
(-0.0642077 -0.0530627 0)
(-0.0429743 -0.0488846 0)
(-0.0236725 -0.039115 0)
(-0.00882262 -0.0246554 0)
(-0.00143443 -0.00774552 0)
(-0.00193668 0.0135099 0)
(-0.0111892 0.0382796 0)
(-0.0290241 0.0574946 0)
(-0.0515116 0.0695667 0)
(-0.0757437 0.0741786 0)
(-0.0995629 0.0717443 0)
(-0.12111 0.0631221 0)
(-0.138862 0.0494219 0)
(-0.151654 0.031887 0)
(-0.158663 0.0118459 0)
(-0.1594 -0.00928961 0)
(-0.153719 -0.0300095 0)
(-0.141848 -0.0487017 0)
(-0.124435 -0.0636856 0)
(-0.102608 -0.0733066 0)
(-0.0780154 -0.0761117 0)
(-0.0527816 -0.0711063 0)
(-0.0294096 -0.0580583 0)
(-0.0110969 -0.0378216 0)
(-0.00183607 -0.0128078 0)
(-0.00233242 0.0198282 0)
(-0.0133288 0.0539696 0)
(-0.0342869 0.0793635 0)
(-0.0603699 0.094663 0)
(-0.0881041 0.0999106 0)
(-0.115051 0.0959336 0)
(-0.139215 0.0840089 0)
(-0.159029 0.0656418 0)
(-0.173334 0.0424377 0)
(-0.18132 0.0160614 0)
(-0.182483 -0.0117468 0)
(-0.176622 -0.0391292 0)
(-0.163874 -0.0640804 0)
(-0.144787 -0.0844592 0)
(-0.120418 -0.0980804 0)
(-0.092446 -0.102914 0)
(-0.0631913 -0.097404 0)
(-0.0355737 -0.0808646 0)
(-0.0135619 -0.0539177 0)
(-0.00227465 -0.0190704 0)
(-0.00275699 0.0272782 0)
(-0.0155701 0.072289 0)
(-0.0396994 0.104595 0)
(-0.069314 0.123248 0)
(-0.100345 0.128861 0)
(-0.130102 0.122868 0)
(-0.156514 0.107104 0)
(-0.178054 0.0835477 0)
(-0.193644 0.0541886 0)
(-0.202543 0.021007 0)
(-0.204263 -0.0139749 0)
(-0.198544 -0.0486069 0)
(-0.185387 -0.0805304 0)
(-0.165153 -0.107146 0)
(-0.138722 -0.125676 0)
(-0.107688 -0.133369 0)
(-0.0744828 -0.127877 0)
(-0.0424302 -0.107784 0)
(-0.0163766 -0.0732206 0)
(-0.00279455 -0.0266756 0)
(-0.00323791 0.0359415 0)
(-0.018002 0.0933378 0)
(-0.045378 0.133183 0)
(-0.0783904 0.155144 0)
(-0.112342 0.16069 0)
(-0.144349 0.152107 0)
(-0.172377 0.131955 0)
(-0.195053 0.102768 0)
(-0.211493 0.0669293 0)
(-0.221112 0.0266883 0)
(-0.223487 -0.0157339 0)
(-0.218305 -0.0579915 0)
(-0.205386 -0.0974591 0)
(-0.184806 -0.131122 0)
(-0.157117 -0.155572 0)
(-0.123653 -0.167184 0)
(-0.0867979 -0.16254 0)
(-0.0502027 -0.139104 0)
(-0.0196998 -0.0961265 0)
(-0.00344346 -0.0358567 0)
(-0.00381294 0.0459551 0)
(-0.0207354 0.117268 0)
(-0.0514369 0.165079 0)
(-0.087564 0.190011 0)
(-0.123764 0.194796 0)
(-0.157078 0.182892 0)
(-0.185676 0.157785 0)
(-0.208516 0.122645 0)
(-0.225062 0.0802383 0)
(-0.234999 0.0330006 0)
(-0.238046 -0.0167743 0)
(-0.233858 -0.0666942 0)
(-0.222041 -0.114012 0)
(-0.202278 -0.155405 0)
(-0.174607 -0.18685 0)
(-0.13985 -0.203714 0)
(-0.100069 -0.201177 0)
(-0.0590578 -0.175061 0)
(-0.0237034 -0.123125 0)
(-0.00428164 -0.0469421 0)
(-0.00454753 0.0575369 0)
(-0.0239436 0.144285 0)
(-0.0580191 0.20013 0)
(-0.0967085 0.227223 0)
(-0.134016 0.230156 0)
(-0.167122 0.213985 0)
(-0.194666 0.183346 0)
(-0.216178 0.142114 0)
(-0.231662 0.0933844 0)
(-0.241221 0.0396575 0)
(-0.24481 -0.0168758 0)
(-0.242105 -0.0739835 0)
(-0.232483 -0.129016 0)
(-0.215137 -0.178534 0)
(-0.189383 -0.21801 0)
(-0.155201 -0.241736 0)
(-0.113915 -0.243138 0)
(-0.069081 -0.215706 0)
(-0.0285973 -0.154761 0)
(-0.00539867 -0.0603774 0)
(-0.00556601 0.0710485 0)
(-0.0279238 0.174667 0)
(-0.065323 0.237985 0)
(-0.105551 0.26569 0)
(-0.142102 0.265121 0)
(-0.172685 0.243473 0)
(-0.196791 0.206759 0)
(-0.214834 0.159572 0)
(-0.227578 0.10523 0)
(-0.235696 0.0461162 0)
(-0.239489 -0.0159021 0)
(-0.238724 -0.0790113 0)
(-0.23258 -0.14095 0)
(-0.219709 -0.198464 0)
(-0.198518 -0.246774 0)
(-0.167763 -0.27917 0)
(-0.127444 -0.287033 0)
(-0.0802169 -0.260679 0)
(-0.0346638 -0.191577 0)
(-0.00694294 -0.0767745 0)
(-0.00710696 0.0871208 0)
(-0.0331812 0.208767 0)
(-0.0735789 0.277909 0)
(-0.113489 0.30357 0)
(-0.146325 0.297133 0)
(-0.17099 0.268552 0)
(-0.188364 0.22537 0)
(-0.200089 0.172798 0)
(-0.20789 0.114171 0)
(-0.213125 0.0515191 0)
(-0.216526 -0.0138688 0)
(-0.218041 -0.0808813 0)
(-0.216739 -0.147985 0)
(-0.210778 -0.212523 0)
(-0.197569 -0.269902 0)
(-0.174295 -0.312737 0)
(-0.138913 -0.330295 0)
(-0.0921147 -0.308838 0)
(-0.0422926 -0.233989 0)
(-0.00917247 -0.0970131 0)
(-0.00961405 0.106875 0)
(-0.0405092 0.246953 0)
(-0.0828508 0.318397 0)
(-0.119094 0.337799 0)
(-0.14364 0.32235 0)
(-0.157654 0.285314 0)
(-0.164059 0.235681 0)
(-0.166017 0.178964 0)
(-0.166297 0.118175 0)
(-0.166941 0.0546971 0)
(-0.169117 -0.011004 0)
(-0.173033 -0.0787734 0)
(-0.177805 -0.148135 0)
(-0.181302 -0.217507 0)
(-0.180075 -0.28312 0)
(-0.169595 -0.337627 0)
(-0.145065 -0.36859 0)
(-0.103738 -0.357629 0)
(-0.0519622 -0.282 0)
(-0.0125286 -0.122402 0)
(-0.0138377 0.132244 0)
(-0.0509114 0.28927 0)
(-0.0923214 0.356393 0)
(-0.118912 0.363385 0)
(-0.128359 0.335264 0)
(-0.125589 0.288691 0)
(-0.116143 0.233515 0)
(-0.104741 0.174894 0)
(-0.0949967 0.115014 0)
(-0.0894041 0.0543052 0)
(-0.0894321 -0.00776661 0)
(-0.095562 -0.0721342 0)
(-0.107173 -0.13959 0)
(-0.122254 -0.210048 0)
(-0.136999 -0.281352 0)
(-0.14551 -0.347351 0)
(-0.139926 -0.395144 0)
(-0.112398 -0.402058 0)
(-0.0639419 -0.334504 0)
(-0.0176726 -0.154854 0)
(-0.0207288 0.166456 0)
(-0.06475 0.334397 0)
(-0.0981592 0.385756 0)
(-0.104804 0.372424 0)
(-0.0897899 0.328482 0)
(-0.063308 0.272805 0)
(-0.0334969 0.214651 0)
(-0.00605103 0.157741 0)
(0.0152495 0.102832 0)
(0.0280149 0.0491715 0)
(0.0308235 -0.00477145 0)
(0.0230073 -0.0609149 0)
(0.00470428 -0.121259 0)
(-0.0227777 -0.187398 0)
(-0.0562437 -0.259485 0)
(-0.0895798 -0.334078 0)
(-0.112624 -0.400164 0)
(-0.111474 -0.433131 0)
(-0.076996 -0.387826 0)
(-0.0251696 -0.19713 0)
(-0.0302657 0.215116 0)
(-0.0783841 0.376865 0)
(-0.0879861 0.39407 0)
(-0.0585781 0.352622 0)
(-0.0084167 0.292876 0)
(0.0472174 0.231991 0)
(0.0992278 0.176086 0)
(0.142567 0.126143 0)
(0.174557 0.0810375 0)
(0.193776 0.0388705 0)
(0.199365 -0.0025829 0)
(0.190683 -0.0457888 0)
(0.167255 -0.0934848 0)
(0.129082 -0.148616 0)
(0.0774569 -0.213827 0)
(0.016587 -0.289726 0)
(-0.0438127 -0.370528 0)
(-0.0855731 -0.43541 0)
(-0.0845262 -0.432702 0)
(-0.0338079 -0.253485 0)
(-0.0356878 0.283823 0)
(-0.0735999 0.399017 0)
(-0.0282939 0.358113 0)
(0.0574126 0.287361 0)
(0.149091 0.220056 0)
(0.232233 0.163795 0)
(0.301354 0.118629 0)
(0.354755 0.0821464 0)
(0.392395 0.0515889 0)
(0.414662 0.0244731 0)
(0.421717 -0.00144898 0)
(0.413201 -0.0284319 0)
(0.388116 -0.0590593 0)
(0.344895 -0.0965955 0)
(0.281895 -0.145233 0)
(0.198829 -0.209616 0)
(0.0996278 -0.292095 0)
(-0.00130487 -0.384858 0)
(-0.0647013 -0.446215 0)
(-0.0339684 -0.32474 0)
(0.00853344 0.336139 0)
(0.0213575 0.351841 0)
(0.162937 0.252235 0)
(0.312469 0.172347 0)
(0.432205 0.117405 0)
(0.5238 0.0799277 0)
(0.592195 0.0540888 0)
(0.641269 0.0355947 0)
(0.674138 0.0214779 0)
(0.69296 0.00973971 0)
(0.698829 -0.00108648 0)
(0.691775 -0.0123157 0)
(0.670676 -0.0254702 0)
(0.633028 -0.0427497 0)
(0.574702 -0.0677238 0)
(0.489927 -0.106228 0)
(0.370979 -0.166987 0)
(0.212323 -0.259992 0)
(0.0521326 -0.375795 0)
(0.0234336 -0.362213 0)
(0.358471 0.174889 0)
(0.473253 0.152858 0)
(0.665654 0.091606 0)
(0.80616 0.052947 0)
(0.889925 0.0311544 0)
(0.942414 0.0186669 0)
(0.976973 0.0113317 0)
(0.99964 0.00680772 0)
(1.01379 0.00377013 0)
(1.02134 0.0014765 0)
(1.02321 -0.000525 0)
(1.01957 -0.00258889 0)
(1.00982 -0.00511719 0)
(0.992339 -0.00876292 0)
(0.9639 -0.0147838 0)
(0.918293 -0.0257124 0)
(0.841528 -0.0465787 0)
(0.703775 -0.0866725 0)
(0.501368 -0.153366 0)
(0.371734 -0.179735 0)
)
;

boundaryField
{
    movingWall
    {
        type            fixedValue;
        value           uniform (1.2 0 0);
    }
    fixedWalls
    {
        type            noSlip;
    }
    frontAndBack
    {
        type            empty;
    }
}


// ************************************************************************* //
