/*--------------------------------*- C++ -*----------------------------------*\
  =========                 |
  \\      /  F ield         | OpenFOAM: The Open Source CFD Toolbox
   \\    /   O peration     | Website:  https://openfoam.org
    \\  /    A nd           | Version:  8
     \\/     M anipulation  |
\*---------------------------------------------------------------------------*/
FoamFile
{
    version     2.0;
    format      ascii;
    class       surfaceScalarField;
    location    "0.1";
    object      phi;
}
// * * * * * * * * * * * * * * * * * * * * * * * * * * * * * * * * * * * * * //

dimensions      [0 3 -1 0 0 0 0];

internalField   nonuniform List<scalar> 
760
(
1.92434e-08
-1.9245e-08
-3.15967e-08
5.0841e-08
-1.58646e-07
1.27048e-07
-3.38938e-07
1.80292e-07
-5.45422e-07
2.06484e-07
-7.52772e-07
2.07351e-07
-9.39266e-07
1.86494e-07
-1.0874e-06
1.48137e-07
-1.184e-06
9.65985e-08
-1.22029e-06
3.62915e-08
-1.19221e-06
-2.8078e-08
-1.1009e-06
-9.131e-08
-9.53275e-07
-1.47631e-07
-7.6245e-07
-1.90826e-07
-5.47802e-07
-2.14647e-07
-3.34239e-07
-2.13563e-07
-1.50269e-07
-1.8397e-07
-2.44423e-08
-1.25827e-07
2.20217e-08
-4.64637e-08
2.20214e-08
-4.78458e-08
2.86036e-08
-2.50036e-07
2.5303e-07
-5.99352e-07
4.76368e-07
-1.05326e-06
6.34203e-07
-1.55777e-06
7.10989e-07
-2.0585e-06
7.08079e-07
-2.50644e-06
6.34439e-07
-2.86086e-06
5.02555e-07
-3.0907e-06
3.26436e-07
-3.1755e-06
1.21091e-07
-3.10631e-06
-9.72669e-08
-2.8867e-06
-3.10924e-07
-2.53365e-06
-5.00671e-07
-2.07804e-06
-6.46435e-07
-1.56391e-06
-7.28785e-07
-1.04595e-06
-7.31523e-07
-5.84337e-07
-6.4558e-07
-2.3608e-07
-4.74084e-07
-4.15397e-08
-2.41005e-07
-1.9519e-08
-1.28009e-07
1.56613e-07
-4.93659e-07
6.18678e-07
-1.05471e-06
1.03742e-06
-1.74697e-06
1.32646e-06
-2.49659e-06
1.46061e-06
-3.23008e-06
1.44157e-06
-3.88088e-06
1.28523e-06
-4.39322e-06
1.0149e-06
-4.72445e-06
6.57664e-07
-4.84648e-06
2.43118e-07
-4.74713e-06
-1.96619e-07
-4.43142e-06
-6.2663e-07
-3.92269e-06
-1.00941e-06
-3.26292e-06
-1.3062e-06
-2.51174e-06
-1.47996e-06
-1.74299e-06
-1.50027e-06
-1.03809e-06
-1.35048e-06
-4.75891e-07
-1.03629e-06
-1.19105e-07
-5.97792e-07
-1.38624e-07
-2.01369e-07
3.57983e-07
-7.26316e-07
1.14362e-06
-1.49191e-06
1.80301e-06
-2.4069e-06
2.24146e-06
-3.37755e-06
2.43126e-06
-4.31473e-06
2.37875e-06
-5.13928e-06
2.10978e-06
-5.78548e-06
1.6611e-06
-6.20314e-06
1.07533e-06
-6.35911e-06
3.9909e-07
-6.23865e-06
-3.1708e-07
-5.84689e-06
-1.0184e-06
-5.2102e-06
-1.6461e-06
-4.37701e-06
-2.13939e-06
-3.41713e-06
-2.43984e-06
-2.4187e-06
-2.49871e-06
-1.48177e-06
-2.28741e-06
-7.08442e-07
-1.80961e-06
-1.90668e-07
-1.11557e-06
-3.29291e-07
-2.68489e-07
6.26473e-07
-9.46807e-07
1.82194e-06
-1.91129e-06
2.7675e-06
-3.04069e-06
3.37086e-06
-4.22021e-06
3.61077e-06
-5.3462e-06
3.50474e-06
-6.32959e-06
3.09318e-06
-7.09785e-06
2.42936e-06
-7.596e-06
1.57348e-06
-7.78746e-06
5.90543e-07
-7.655e-06
-4.49535e-07
-7.20236e-06
-1.47104e-06
-6.45606e-06
-2.3924e-06
-5.46722e-06
-3.12823e-06
-4.31224e-06
-3.59481e-06
-3.09126e-06
-3.71969e-06
-1.92314e-06
-3.45552e-06
-9.36546e-07
-2.79621e-06
-2.57949e-07
-1.79416e-06
-5.87239e-07
-3.32676e-07
9.59148e-07
-1.16121e-06
2.65047e-06
-2.32145e-06
3.92774e-06
-3.66038e-06
4.70979e-06
-5.0412e-06
4.99159e-06
-6.34648e-06
4.81002e-06
-7.47926e-06
4.22596e-06
-8.36276e-06
3.31285e-06
-8.93949e-06
2.15021e-06
-9.1707e-06
8.21759e-07
-9.03664e-06
-5.83593e-07
-8.538e-06
-1.96969e-06
-7.69852e-06
-3.23188e-06
-6.56835e-06
-4.2584e-06
-5.22707e-06
-4.93609e-06
-3.78491e-06
-5.16185e-06
-2.38021e-06
-4.86022e-06
-1.17184e-06
-4.00459e-06
-3.2613e-07
-2.63987e-06
-9.13371e-07
-3.97187e-07
1.35633e-06
-1.37653e-06
3.62982e-06
-2.73158e-06
5.28278e-06
-4.27563e-06
6.25384e-06
-5.84944e-06
6.56541e-06
-7.32311e-06
6.28369e-06
-8.59435e-06
5.4972e-06
-9.58513e-06
4.30363e-06
-1.02381e-05
2.80322e-06
-1.05141e-05
1.09771e-06
-1.03907e-05
-7.06935e-07
-9.8641e-06
-2.49633e-06
-8.95182e-06
-4.14416e-06
-7.69867e-06
-5.51156e-06
-6.18289e-06
-6.45186e-06
-4.52162e-06
-6.82312e-06
-2.8724e-06
-6.50945e-06
-1.42776e-06
-5.44922e-06
-4.00761e-07
-3.66687e-06
-1.31413e-06
-4.64888e-07
1.82122e-06
-1.59903e-06
4.76396e-06
-3.1486e-06
6.83235e-06
-4.8904e-06
7.99564e-06
-6.64288e-06
8.31789e-06
-8.26623e-06
7.90703e-06
-9.65685e-06
6.88782e-06
-1.07399e-05
5.38667e-06
-1.1462e-05
3.52532e-06
-1.17858e-05
1.42157e-06
-1.16874e-05
-8.05354e-07
-1.11565e-05
-3.02727e-06
-1.02008e-05
-5.09986e-06
-8.85396e-06
-6.85839e-06
-7.18621e-06
-8.11961e-06
-5.31568e-06
-8.69365e-06
-3.41637e-06
-8.40876e-06
-1.71731e-06
-7.14829e-06
-4.8728e-07
-4.89689e-06
-1.80141e-06
-5.3853e-07
2.35975e-06
-1.83423e-06
6.05965e-06
-3.5765e-06
8.57463e-06
-5.50139e-06
9.92053e-06
-7.40609e-06
1.02226e-05
-9.14555e-06
9.64649e-06
-1.06213e-05
8.36352e-06
-1.1768e-05
6.53345e-06
-1.25421e-05
4.29938e-06
-1.2912e-05
1.7915e-06
-1.28536e-05
-8.63722e-07
-1.23495e-05
-3.53147e-06
-1.13931e-05
-6.05621e-06
-9.99976e-06
-8.25172e-06
-8.2219e-06
-9.89747e-06
-6.16857e-06
-1.0747e-05
-4.0233e-06
-1.0554e-05
-2.05219e-06
-9.1194e-06
-5.91157e-07
-6.35793e-06
-2.39257e-06
-6.21646e-07
2.9814e-06
-2.08827e-06
7.52627e-06
-4.01695e-06
1.05033e-05
-6.09716e-06
1.20007e-05
-8.10779e-06
1.22332e-05
-9.90656e-06
1.14453e-05
-1.14097e-05
9.86668e-06
-1.25711e-05
7.69482e-06
-1.33642e-05
5.0925e-06
-1.37692e-05
2.19649e-06
-1.37648e-05
-8.6809e-07
-1.33262e-05
-3.9701e-06
-1.24289e-05
-6.9535e-06
-1.10611e-05
-9.61955e-06
-9.24431e-06
-1.17142e-05
-7.06286e-06
-1.29284e-05
-4.69608e-06
-1.29208e-05
-2.44279e-06
-1.13727e-05
-7.18547e-07
-8.08218e-06
-3.11112e-06
-7.20172e-07
3.70157e-06
-2.37029e-06
9.17639e-06
-4.47034e-06
1.26034e-05
-6.6566e-06
1.4187e-05
-8.69678e-06
1.42734e-05
-1.04646e-05
1.32131e-05
-1.19052e-05
1.13073e-05
-1.30038e-05
8.79345e-06
-1.37612e-05
5.84987e-06
-1.41762e-05
2.61151e-06
-1.42353e-05
-8.09052e-07
-1.39076e-05
-4.29779e-06
-1.31479e-05
-7.71315e-06
-1.19087e-05
-1.08588e-05
-1.01648e-05
-1.34582e-05
-7.95316e-06
-1.514e-05
-5.42517e-06
-1.54488e-05
-2.8981e-06
-1.38998e-05
-8.77465e-07
-1.01028e-05
-3.98858e-06
-8.45147e-07
4.54672e-06
-2.69547e-06
1.10267e-05
-4.93551e-06
1.48434e-05
-7.14415e-06
1.63956e-05
-9.09351e-06
1.62228e-05
-1.06947e-05
1.48142e-05
-1.19413e-05
1.25539e-05
-1.2865e-05
9.7172e-06
-1.35048e-05
6.48964e-06
-1.38863e-05
2.99298e-06
-1.40092e-05
-6.86089e-07
-1.38408e-05
-4.46621e-06
-1.3315e-05
-8.23891e-06
-1.23423e-05
-1.18315e-05
-1.08341e-05
-1.49663e-05
-8.75165e-06
-1.72225e-05
-6.18071e-06
-1.80197e-05
-3.42493e-06
-1.66555e-05
-1.07973e-06
-1.2448e-05
-5.06831e-06
-1.01711e-06
5.56383e-06
-3.08753e-06
1.30971e-05
-5.40461e-06
1.71605e-05
-7.49655e-06
1.84876e-05
-9.17215e-06
1.78984e-05
-1.0413e-05
1.60551e-05
-1.12861e-05
1.34269e-05
-1.18854e-05
1.03165e-05
-1.22975e-05
6.90173e-06
-1.25811e-05
3.2766e-06
-1.27553e-05
-5.1194e-07
-1.2791e-05
-4.43051e-06
-1.26066e-05
-8.42333e-06
-1.20701e-05
-1.2368e-05
-1.10181e-05
-1.60183e-05
-9.30461e-06
-1.8936e-05
-6.89695e-06
-2.04274e-05
-4.02415e-06
-1.95283e-05
-1.34403e-06
-1.51281e-05
-6.41234e-06
-1.27267e-06
6.8365e-06
-3.5766e-06
1.54011e-05
-5.84363e-06
1.94275e-05
-7.59027e-06
2.02342e-05
-8.7238e-06
1.90319e-05
-9.34386e-06
1.66752e-05
-9.61762e-06
1.37007e-05
-9.71279e-06
1.04117e-05
-9.76633e-06
6.95526e-06
-9.87095e-06
3.38122e-06
-1.00679e-05
-3.14944e-07
-1.03398e-05
-4.15864e-06
-1.06008e-05
-8.16238e-06
-1.06881e-05
-1.22806e-05
-1.03646e-05
-1.63418e-05
-9.35365e-06
-1.9947e-05
-7.4407e-06
-2.23404e-05
-4.67835e-06
-2.22907e-05
-1.69941e-06
-1.81071e-05
-8.11175e-06
-1.67042e-06
8.50692e-06
-4.17797e-06
1.79086e-05
-6.13692e-06
2.13865e-05
-7.16874e-06
2.1266e-05
-7.38586e-06
1.9249e-05
-7.06331e-06
1.63526e-05
-6.48676e-06
1.31241e-05
-5.89388e-06
9.81884e-06
-5.46054e-06
6.52192e-06
-5.30312e-06
3.2238e-06
-5.48193e-06
-1.36142e-07
-5.99788e-06
-3.64269e-06
-6.77973e-06
-7.38053e-06
-7.66192e-06
-1.13985e-05
-8.3607e-06
-1.5643e-05
-8.47254e-06
-1.98351e-05
-7.54638e-06
-2.32665e-05
-5.31362e-06
-2.45235e-05
-2.18332e-06
-2.12374e-05
-1.02951e-05
-2.27746e-06
1.07844e-05
-4.80561e-06
2.04367e-05
-5.94515e-06
2.2526e-05
-5.69288e-06
2.10138e-05
-4.51922e-06
1.80754e-05
-2.91605e-06
1.47494e-05
-1.27238e-06
1.14805e-05
1.39065e-07
8.4074e-06
1.1386e-06
5.52239e-06
1.61217e-06
2.75023e-06
1.49364e-06
-1.76122e-08
7.60822e-07
-2.90987e-06
-5.52401e-07
-6.06731e-06
-2.323e-06
-9.62786e-06
-4.28495e-06
-1.36811e-05
-5.96829e-06
-1.81518e-05
-6.68539e-06
-2.25494e-05
-5.69107e-06
-2.55178e-05
-2.80776e-06
-2.41207e-05
-1.31028e-05
-3.07577e-06
1.38601e-05
-5.0022e-06
2.23632e-05
-4.37716e-06
2.1901e-05
-2.06485e-06
1.87015e-05
9.76043e-07
1.50345e-05
4.08235e-06
1.16431e-05
6.85158e-06
8.71123e-06
9.05873e-06
6.20025e-06
1.05818e-05
3.99934e-06
1.135e-05
1.982e-06
1.13138e-05
1.86263e-08
1.04346e-05
-2.03069e-06
8.68991e-06
-4.32263e-06
6.10691e-06
-7.04487e-06
2.83338e-06
-1.04075e-05
-7.39748e-07
-1.45787e-05
-3.82236e-06
-1.94668e-05
-5.14373e-06
-2.41964e-05
-3.4303e-06
-2.58341e-05
-1.65331e-05
-3.62744e-06
1.74876e-05
-3.21037e-06
2.19461e-05
6.92296e-07
1.79983e-05
5.8145e-06
1.35793e-05
1.08728e-05
9.97617e-06
1.53002e-05
7.21572e-06
1.88832e-05
5.12827e-06
2.15691e-05
3.51431e-06
2.33641e-05
2.20435e-06
2.42797e-05
1.06645e-06
2.43056e-05
-7.36507e-09
2.33996e-05
-1.12466e-06
2.14816e-05
-2.40464e-06
1.84497e-05
-4.01291e-06
1.423e-05
-6.18785e-06
8.90952e-06
-9.25818e-06
3.01575e-06
-1.3573e-05
-1.99563e-06
-1.9185e-05
-3.40297e-06
-2.44268e-05
-1.99361e-05
-1.26769e-06
1.87553e-05
5.34234e-06
1.53361e-05
1.38966e-05
9.44405e-06
2.15191e-05
5.95673e-06
2.76309e-05
3.86438e-06
3.23055e-05
2.54112e-06
3.57551e-05
1.67873e-06
3.81817e-05
1.08768e-06
3.9736e-05
6.50064e-07
4.0509e-05
2.9339e-07
4.05334e-05
-3.17463e-08
3.97764e-05
-3.67616e-07
3.81347e-05
-7.62972e-07
3.54142e-05
-1.29239e-06
3.13143e-05
-2.08798e-06
2.54516e-05
-3.39549e-06
1.75457e-05
-5.6671e-06
8.06497e-06
-9.7043e-06
1.29226e-08
-1.63747e-05
-1.99232e-05
1.87553e-05
3.40914e-05
4.35354e-05
4.94921e-05
5.33565e-05
5.58976e-05
5.75764e-05
5.8664e-05
5.93141e-05
5.96075e-05
5.95758e-05
5.92081e-05
5.84452e-05
5.71528e-05
5.50648e-05
5.16693e-05
4.60022e-05
3.62979e-05
1.99232e-05
)
;

boundaryField
{
    movingWall
    {
        type            calculated;
        value           uniform 0;
    }
    fixedWalls
    {
        type            calculated;
        value           uniform 0;
    }
    frontAndBack
    {
        type            empty;
        value           nonuniform List<scalar> 0();
    }
}


// ************************************************************************* //
