/*--------------------------------*- C++ -*----------------------------------*\
  =========                 |
  \\      /  F ield         | OpenFOAM: The Open Source CFD Toolbox
   \\    /   O peration     | Website:  https://openfoam.org
    \\  /    A nd           | Version:  8
     \\/     M anipulation  |
\*---------------------------------------------------------------------------*/
FoamFile
{
    version     2.0;
    format      ascii;
    class       surfaceScalarField;
    location    "0.4";
    object      phi;
}
// * * * * * * * * * * * * * * * * * * * * * * * * * * * * * * * * * * * * * //

dimensions      [0 3 -1 0 0 0 0];

internalField   nonuniform List<scalar> 
760
(
1.69331e-08
-1.69805e-08
-2.70166e-08
4.39497e-08
-1.37525e-07
1.10508e-07
-2.94762e-07
1.57237e-07
-4.75078e-07
1.80316e-07
-6.56198e-07
1.8112e-07
-8.18973e-07
1.62775e-07
-9.48014e-07
1.2904e-07
-1.03181e-06
8.38014e-08
-1.06284e-06
3.10233e-08
-1.03773e-06
-2.51106e-08
-9.5768e-07
-8.00469e-08
-8.28876e-07
-1.28804e-07
-6.62804e-07
-1.66072e-07
-4.76269e-07
-1.86536e-07
-2.90788e-07
-1.85481e-07
-1.30978e-07
-1.5981e-07
-2.15472e-08
-1.09431e-07
1.90311e-08
-4.05779e-08
1.90312e-08
-4.14012e-08
2.44207e-08
-2.17203e-07
2.19751e-07
-5.21581e-07
4.14887e-07
-9.17676e-07
5.53332e-07
-1.35827e-06
6.2091e-07
-1.7956e-06
6.18451e-07
-2.18656e-06
5.53732e-07
-2.49537e-06
4.37849e-07
-2.69492e-06
2.83353e-07
-2.76757e-06
1.03676e-07
-2.70588e-06
-8.68046e-08
-2.51335e-06
-2.7258e-07
-2.20511e-06
-4.37036e-07
-1.80821e-06
-5.62977e-07
-1.3609e-06
-6.33841e-07
-9.10552e-07
-6.35832e-07
-5.09179e-07
-5.61183e-07
-2.06122e-07
-4.12488e-07
-3.64821e-08
-2.10219e-07
-1.74505e-08
-1.11185e-07
1.35606e-07
-4.29429e-07
5.37995e-07
-9.18471e-07
9.03929e-07
-1.52252e-06
1.15738e-06
-2.17697e-06
1.27535e-06
-2.81728e-06
1.25876e-06
-3.38495e-06
1.12141e-06
-3.83109e-06
8.83987e-07
-4.11848e-06
5.70739e-07
-4.2229e-06
2.08102e-07
-4.13424e-06
-1.75471e-07
-3.85741e-06
-5.49404e-07
-3.41321e-06
-8.81237e-07
-2.83845e-06
-1.13774e-06
-2.18497e-06
-1.28732e-06
-1.51669e-06
-1.30411e-06
-9.03968e-07
-1.17391e-06
-4.14963e-07
-9.01493e-07
-1.04132e-07
-5.2105e-07
-1.21582e-07
-1.74893e-07
3.10499e-07
-6.31675e-07
9.94777e-07
-1.29875e-06
1.571e-06
-2.09668e-06
1.95532e-06
-2.94344e-06
2.12211e-06
-3.76076e-06
2.07608e-06
-4.47913e-06
1.83977e-06
-5.04096e-06
1.44582e-06
-5.40258e-06
9.32359e-07
-5.5355e-06
3.41018e-07
-5.42752e-06
-2.8345e-07
-5.08385e-06
-8.93067e-07
-4.52812e-06
-1.43697e-06
-3.80281e-06
-1.86305e-06
-2.96862e-06
-2.12151e-06
-2.10173e-06
-2.171e-06
-1.28843e-06
-1.98721e-06
-6.16775e-07
-1.57315e-06
-1.66392e-07
-9.71433e-07
-2.87974e-07
-2.32988e-07
5.43486e-07
-8.22776e-07
1.58456e-06
-1.66246e-06
2.41068e-06
-2.64642e-06
2.93929e-06
-3.67416e-06
3.14985e-06
-4.65469e-06
3.05662e-06
-5.50985e-06
2.69493e-06
-6.17618e-06
2.11216e-06
-6.606e-06
1.36217e-06
-6.76801e-06
5.03037e-07
-6.64816e-06
-4.03301e-07
-6.2507e-06
-1.29053e-06
-5.59959e-06
-2.08808e-06
-4.73982e-06
-2.72282e-06
-3.73777e-06
-3.12356e-06
-2.67983e-06
-3.22894e-06
-1.66817e-06
-2.99887e-06
-8.13371e-07
-2.42795e-06
-2.24561e-07
-1.56024e-06
-5.12534e-07
-2.88376e-07
8.31862e-07
-1.00808e-06
2.30427e-06
-2.01716e-06
3.41975e-06
-3.18226e-06
4.10439e-06
-4.38359e-06
4.35118e-06
-5.5181e-06
4.19113e-06
-6.50075e-06
3.67758e-06
-7.26453e-06
2.87594e-06
-7.75979e-06
1.85743e-06
-7.95367e-06
6.96924e-07
-7.83025e-06
-5.2672e-07
-7.39151e-06
-1.72928e-06
-6.65934e-06
-2.82025e-06
-5.67807e-06
-3.70408e-06
-4.51688e-06
-4.28475e-06
-3.27062e-06
-4.4752e-06
-2.05777e-06
-4.21172e-06
-1.01425e-06
-3.47147e-06
-2.82942e-07
-2.29155e-06
-7.95476e-07
-3.43972e-07
1.17583e-06
-1.19392e-06
3.15422e-06
-2.37119e-06
4.59703e-06
-3.71304e-06
5.44623e-06
-5.07998e-06
5.71812e-06
-6.35801e-06
5.46916e-06
-7.45753e-06
4.77711e-06
-8.31066e-06
3.72906e-06
-8.86818e-06
2.41495e-06
-9.09717e-06
9.25911e-07
-8.97997e-06
-6.43918e-07
-8.51495e-06
-2.19429e-06
-7.71915e-06
-3.61605e-06
-6.63259e-06
-4.79064e-06
-5.32339e-06
-5.59396e-06
-3.89212e-06
-5.90647e-06
-2.47317e-06
-5.63067e-06
-1.23051e-06
-4.71413e-06
-3.4616e-07
-3.1759e-06
-1.14164e-06
-4.02396e-07
1.57823e-06
-1.38608e-06
4.13791e-06
-2.7312e-06
5.94214e-06
-4.24301e-06
6.95804e-06
-5.76244e-06
7.23756e-06
-7.16685e-06
6.87356e-06
-8.36563e-06
5.97589e-06
-9.29394e-06
4.65737e-06
-9.90637e-06
3.02738e-06
-1.01722e-05
1.1917e-06
-1.00726e-05
-7.43531e-07
-9.601e-06
-2.66584e-06
-8.76651e-06
-4.45055e-06
-7.59991e-06
-5.95723e-06
-6.16267e-06
-7.0312e-06
-4.55613e-06
-7.51301e-06
-2.92819e-06
-7.25861e-06
-1.47295e-06
-6.16937e-06
-4.18746e-07
-4.23011e-06
-1.56038e-06
-4.66208e-07
2.04444e-06
-1.58984e-06
5.26154e-06
-3.10139e-06
7.45368e-06
-4.77027e-06
8.62693e-06
-6.41874e-06
8.88603e-06
-7.91965e-06
8.37446e-06
-9.18708e-06
7.24332e-06
-1.0165e-05
5.63526e-06
-1.08167e-05
3.67907e-06
-1.11169e-05
1.49192e-06
-1.10472e-05
-8.13222e-07
-1.05952e-05
-3.11783e-06
-9.75823e-06
-5.28751e-06
-8.55179e-06
-7.16367e-06
-7.02251e-06
-8.56047e-06
-5.26411e-06
-9.27141e-06
-3.4322e-06
-9.09053e-06
-1.75132e-06
-7.85025e-06
-5.05246e-07
-5.47618e-06
-2.06563e-06
-5.38666e-07
2.5831e-06
-1.81102e-06
6.5339e-06
-3.48394e-06
9.1266e-06
-5.2858e-06
1.04288e-05
-7.02279e-06
1.0623e-05
-8.57038e-06
9.92206e-06
-9.85598e-06
8.52891e-06
-1.08405e-05
6.61979e-06
-1.15027e-05
4.3413e-06
-1.18277e-05
1.81692e-06
-1.17998e-05
-8.41137e-07
-1.14005e-05
-3.51717e-06
-1.06118e-05
-6.07615e-06
-9.42668e-06
-8.34883e-06
-7.86583e-06
-1.01213e-05
-6.00228e-06
-1.1135e-05
-3.98802e-06
-1.11048e-05
-2.07439e-06
-9.76387e-06
-6.10797e-07
-6.93977e-06
-2.67642e-06
-6.25089e-07
3.20819e-06
-2.0579e-06
7.96671e-06
-3.87959e-06
1.09483e-05
-5.77166e-06
1.23209e-05
-7.53058e-06
1.23819e-05
-9.0463e-06
1.14378e-05
-1.02721e-05
9.75466e-06
-1.11966e-05
7.54438e-06
-1.18228e-05
4.96745e-06
-1.21519e-05
2.14604e-06
-1.21748e-05
-8.18294e-07
-1.18676e-05
-3.8243e-06
-1.11947e-05
-6.74905e-06
-1.01185e-05
-9.42505e-06
-8.6205e-06
-1.16193e-05
-6.73433e-06
-1.30211e-05
-4.58867e-06
-1.32504e-05
-2.4501e-06
-1.19024e-05
-7.42155e-07
-8.64772e-06
-3.41858e-06
-7.35131e-07
3.94332e-06
-2.3436e-06
9.57518e-06
-4.28699e-06
1.28917e-05
-6.19629e-06
1.42302e-05
-7.8723e-06
1.4058e-05
-9.23849e-06
1.2804e-05
-1.02912e-05
1.08074e-05
-1.10603e-05
8.31351e-06
-1.15819e-05
5.48897e-06
-1.188e-05
2.4442e-06
-1.19566e-05
-7.41761e-07
-1.17852e-05
-3.99571e-06
-1.13116e-05
-7.2226e-06
-1.04621e-05
-1.02745e-05
-9.16474e-06
-1.29167e-05
-7.38963e-06
-1.47962e-05
-5.21122e-06
-1.54289e-05
-2.8851e-06
-1.42286e-05
-9.0943e-07
-1.06234e-05
-4.32801e-06
-8.86471e-07
4.82979e-06
-2.6879e-06
1.13766e-05
-4.69756e-06
1.49013e-05
-6.50229e-06
1.60349e-05
-7.93607e-06
1.54917e-05
-8.9853e-06
1.38532e-05
-9.71129e-06
1.15334e-05
-1.01986e-05
8.80085e-06
-1.05244e-05
5.81471e-06
-1.07406e-05
2.66045e-06
-1.08644e-05
-6.17982e-07
-1.08712e-05
-3.98885e-06
-1.0692e-05
-7.40186e-06
-1.02157e-05
-1.07508e-05
-9.30621e-06
-1.38262e-05
-7.84359e-06
-1.62589e-05
-5.80402e-06
-1.74684e-05
-3.38206e-06
-1.66505e-05
-1.12879e-06
-1.28767e-05
-5.4568e-06
-1.11028e-06
5.94007e-06
-3.11482e-06
1.33812e-05
-5.07793e-06
1.68644e-05
-6.57763e-06
1.75346e-05
-7.53586e-06
1.645e-05
-8.04372e-06
1.43611e-05
-8.25081e-06
1.17405e-05
-8.30572e-06
8.85577e-06
-8.32852e-06
5.83751e-06
-8.39928e-06
2.7312e-06
-8.55242e-06
-4.64839e-07
-8.77119e-06
-3.77007e-06
-8.9806e-06
-7.19245e-06
-9.04126e-06
-1.06902e-05
-8.75281e-06
-1.41146e-05
-7.88444e-06
-1.71272e-05
-6.26038e-06
-1.90925e-05
-3.9298e-06
-1.89811e-05
-1.42577e-06
-1.53807e-05
-6.88257e-06
-1.45593e-06
7.39601e-06
-3.63327e-06
1.55585e-05
-5.32133e-06
1.85525e-05
-6.1929e-06
1.84062e-05
-6.35157e-06
1.66086e-05
-6.04274e-06
1.40522e-05
-5.51921e-06
1.12169e-05
-4.98946e-06
8.32601e-06
-4.60574e-06
5.45379e-06
-4.4668e-06
2.59227e-06
-4.6214e-06
-3.1024e-07
-5.0663e-06
-3.32517e-06
-5.73624e-06
-6.52252e-06
-6.48632e-06
-9.94006e-06
-7.07362e-06
-1.35274e-05
-7.15771e-06
-1.70431e-05
-6.3631e-06
-1.98871e-05
-4.47162e-06
-2.08726e-05
-1.83413e-06
-1.80182e-05
-8.7167e-06
-1.97831e-06
9.37431e-06
-4.16135e-06
1.77415e-05
-5.12537e-06
1.95165e-05
-4.87489e-06
1.81557e-05
-3.82725e-06
1.5561e-05
-2.41626e-06
1.26413e-05
-9.82803e-07
9.78347e-06
2.36523e-07
7.10669e-06
1.08821e-06
4.6021e-06
1.4774e-06
2.20308e-06
1.35187e-06
-1.84717e-07
6.98142e-07
-2.67144e-06
-4.48334e-07
-5.37604e-06
-1.97594e-06
-8.41246e-06
-3.65266e-06
-1.18506e-05
-5.07722e-06
-1.56186e-05
-5.67073e-06
-1.92936e-05
-4.81336e-06
-2.173e-05
-2.3684e-06
-2.04631e-05
-1.10851e-05
-2.65533e-06
1.20296e-05
-4.29389e-06
1.93801e-05
-3.71414e-06
1.89368e-05
-1.67691e-06
1.61185e-05
9.77967e-07
1.29061e-05
3.67163e-06
9.94759e-06
6.05566e-06
7.39944e-06
7.93814e-06
5.2242e-06
9.21762e-06
3.32263e-06
9.83752e-06
1.58318e-06
9.7603e-06
-1.07501e-07
8.95796e-06
-1.86909e-06
7.41808e-06
-3.83616e-06
5.17181e-06
-6.16619e-06
2.35401e-06
-9.03283e-06
-6.94996e-07
-1.25696e-05
-3.30184e-06
-1.66867e-05
-4.396e-06
-2.06358e-05
-2.91527e-06
-2.19439e-05
-1.40004e-05
-3.09875e-06
1.51284e-05
-2.68446e-06
1.89658e-05
7.32196e-07
1.55201e-05
5.18343e-06
1.16672e-05
9.55606e-06
8.53347e-06
1.33617e-05
6.14199e-06
1.64206e-05
4.34053e-06
1.86928e-05
2.95193e-06
2.01884e-05
1.82711e-06
2.09207e-05
8.50809e-07
2.08849e-05
-7.16615e-08
2.0047e-05
-1.03121e-06
1.83431e-05
-2.13228e-06
1.5692e-05
-3.5151e-06
1.20399e-05
-5.38069e-06
7.47263e-06
-8.0023e-06
2.45011e-06
-1.16642e-05
-1.78631e-06
-1.63994e-05
-2.93214e-06
-2.0798e-05
-1.69325e-05
-1.01504e-06
1.61434e-05
4.73761e-06
1.32132e-05
1.2136e-05
8.12173e-06
1.87045e-05
5.09875e-06
2.39476e-05
3.29034e-06
2.79365e-05
2.15313e-06
3.08615e-05
1.41552e-06
3.29019e-05
9.11487e-07
3.41903e-05
5.38746e-07
3.48064e-05
2.34709e-07
3.4778e-05
-4.33289e-08
3.40782e-05
-3.31374e-07
3.2618e-05
-6.72093e-07
3.02326e-05
-1.12967e-06
2.66692e-05
-1.81733e-06
2.161e-05
-2.9431e-06
1.48308e-05
-4.88502e-06
6.74646e-06
-8.31501e-06
-7.13039e-08
-1.39803e-05
-1.70038e-05
1.61434e-05
2.93566e-05
3.74783e-05
4.25771e-05
4.58674e-05
4.80205e-05
4.94361e-05
5.03476e-05
5.08863e-05
5.1121e-05
5.10777e-05
5.07463e-05
5.00742e-05
4.89445e-05
4.71272e-05
4.41841e-05
3.92991e-05
3.09841e-05
1.70038e-05
)
;

boundaryField
{
    movingWall
    {
        type            calculated;
        value           uniform 0;
    }
    fixedWalls
    {
        type            calculated;
        value           uniform 0;
    }
    frontAndBack
    {
        type            empty;
        value           nonuniform List<scalar> 0();
    }
}


// ************************************************************************* //
