/*--------------------------------*- C++ -*----------------------------------*\
  =========                 |
  \\      /  F ield         | OpenFOAM: The Open Source CFD Toolbox
   \\    /   O peration     | Website:  https://openfoam.org
    \\  /    A nd           | Version:  8
     \\/     M anipulation  |
\*---------------------------------------------------------------------------*/
FoamFile
{
    version     2.0;
    format      ascii;
    class       volVectorField;
    location    "0.4";
    object      U;
}
// * * * * * * * * * * * * * * * * * * * * * * * * * * * * * * * * * * * * * //

dimensions      [0 1 -1 0 0 0 0];

internalField   nonuniform List<vector> 
400
(
(0.00030261 -0.000299359 0)
(0.000164023 0.000135665 0)
(-0.00142081 0.000677994 0)
(-0.00418381 0.00106017 0)
(-0.00765254 0.00125154 0)
(-0.0113542 0.00127088 0)
(-0.0148677 0.00114787 0)
(-0.0178446 0.000913514 0)
(-0.0200145 0.000596982 0)
(-0.0211862 0.000226261 0)
(-0.0212493 -0.000169733 0)
(-0.0201808 -0.000559195 0)
(-0.0180532 -0.000906329 0)
(-0.0150432 -0.00117155 0)
(-0.0114357 -0.0013133 0)
(-0.00761973 -0.00129228 0)
(-0.0040676 -0.00107905 0)
(-0.00129022 -0.000666109 0)
(0.000243592 -0.000105288 0)
(0.000323428 0.000316588 0)
(-9.6505e-05 -0.000197511 0)
(-0.00194569 0.00198185 0)
(-0.00684875 0.00434232 0)
(-0.0140758 0.00603407 0)
(-0.022671 0.00687814 0)
(-0.0316653 0.00689895 0)
(-0.0401357 0.00619946 0)
(-0.0472828 0.00491472 0)
(-0.0524725 0.00319058 0)
(-0.0552536 0.00117914 0)
(-0.0553719 -0.000958092 0)
(-0.052785 -0.00304603 0)
(-0.0476772 -0.00489497 0)
(-0.0404711 -0.00630535 0)
(-0.0318265 -0.00708095 0)
(-0.0226158 -0.0070532 0)
(-0.013856 -0.00612018 0)
(-0.00658966 -0.00430192 0)
(-0.00177491 -0.00185824 0)
(-4.62378e-05 0.00028125 0)
(-0.000639761 0.00132435 0)
(-0.00447061 0.00690144 0)
(-0.0127297 0.0122719 0)
(-0.0240059 0.0160713 0)
(-0.0369153 0.017905 0)
(-0.0501633 0.0177775 0)
(-0.0625063 0.0158927 0)
(-0.0728548 0.0125557 0)
(-0.0803392 0.00811965 0)
(-0.0843402 0.00296742 0)
(-0.0845098 -0.00248963 0)
(-0.080792 -0.00780853 0)
(-0.0734415 -0.0125174 0)
(-0.0630358 -0.0161312 0)
(-0.0504713 -0.0181874 0)
(-0.0369271 -0.018307 0)
(-0.0237706 -0.0162844 0)
(-0.0124045 -0.0122056 0)
(-0.00423576 -0.0066342 0)
(-0.000565162 -0.00111852 0)
(-0.00112108 0.00420219 0)
(-0.00685004 0.014694 0)
(-0.0183851 0.0239066 0)
(-0.0335079 0.0302035 0)
(-0.0503625 0.0330627 0)
(-0.067367 0.032516 0)
(-0.0830387 0.028909 0)
(-0.0960908 0.022762 0)
(-0.105502 0.0146881 0)
(-0.110547 0.00535921 0)
(-0.110812 -0.00450075 0)
(-0.106224 -0.0141148 0)
(-0.0970676 -0.0226596 0)
(-0.0840031 -0.0292945 0)
(-0.0680712 -0.0332218 0)
(-0.0506625 -0.0337891 0)
(-0.0334198 -0.0306344 0)
(-0.0180844 -0.0238623 0)
(-0.00658113 -0.0142712 0)
(-0.00102505 -0.0038346 0)
(-0.00154304 0.00829353 0)
(-0.00906208 0.0251818 0)
(-0.0237757 0.0390019 0)
(-0.0426195 0.0480616 0)
(-0.0632254 0.0518608 0)
(-0.0837249 0.0505573 0)
(-0.102434 0.0447062 0)
(-0.117924 0.0350924 0)
(-0.12908 0.022627 0)
(-0.135108 0.00830237 0)
(-0.135553 -0.00681641 0)
(-0.130309 -0.0215883 0)
(-0.119653 -0.0348033 0)
(-0.104269 -0.0452183 0)
(-0.0852742 -0.0516404 0)
(-0.0642127 -0.0530677 0)
(-0.0429776 -0.0488891 0)
(-0.0236743 -0.0391184 0)
(-0.00882329 -0.0246574 0)
(-0.00143454 -0.00774614 0)
(-0.00193684 0.0135112 0)
(-0.0111901 0.0382833 0)
(-0.0290263 0.0575001 0)
(-0.0515155 0.0695733 0)
(-0.0757494 0.0741856 0)
(-0.0995704 0.0717511 0)
(-0.121119 0.063128 0)
(-0.138873 0.0494264 0)
(-0.151665 0.0318897 0)
(-0.158675 0.0118465 0)
(-0.159412 -0.00929104 0)
(-0.15373 -0.0300129 0)
(-0.141857 -0.0487068 0)
(-0.124443 -0.0636918 0)
(-0.102615 -0.0733134 0)
(-0.0780204 -0.0761184 0)
(-0.052785 -0.0711124 0)
(-0.0294115 -0.058063 0)
(-0.0110976 -0.0378246 0)
(-0.00183619 -0.0128088 0)
(-0.00233257 0.01983 0)
(-0.0133296 0.0539743 0)
(-0.034289 0.0793704 0)
(-0.0603735 0.0946713 0)
(-0.0881093 0.0999194 0)
(-0.115058 0.095942 0)
(-0.139223 0.0840161 0)
(-0.159038 0.0656473 0)
(-0.173344 0.042441 0)
(-0.18133 0.0160622 0)
(-0.182493 -0.0117485 0)
(-0.176632 -0.0391334 0)
(-0.163883 -0.0640865 0)
(-0.144795 -0.0844668 0)
(-0.120425 -0.0980889 0)
(-0.0924507 -0.102923 0)
(-0.0631944 -0.0974116 0)
(-0.0355755 -0.0808706 0)
(-0.0135625 -0.0539216 0)
(-0.00227476 -0.0190718 0)
(-0.00275711 0.0272803 0)
(-0.0155707 0.0722947 0)
(-0.039701 0.104604 0)
(-0.0693168 0.123257 0)
(-0.100349 0.128871 0)
(-0.130107 0.122878 0)
(-0.156521 0.107113 0)
(-0.178061 0.0835541 0)
(-0.193652 0.0541924 0)
(-0.202551 0.0210079 0)
(-0.204271 -0.013977 0)
(-0.198551 -0.0486117 0)
(-0.185394 -0.0805375 0)
(-0.165159 -0.107155 0)
(-0.138727 -0.125686 0)
(-0.107692 -0.133378 0)
(-0.0744854 -0.127886 0)
(-0.0424316 -0.107791 0)
(-0.0163771 -0.0732253 0)
(-0.00279465 -0.0266773 0)
(-0.00323798 0.035944 0)
(-0.0180024 0.0933441 0)
(-0.045379 0.133192 0)
(-0.0783922 0.155155 0)
(-0.112344 0.160701 0)
(-0.144352 0.152118 0)
(-0.172381 0.131964 0)
(-0.195057 0.102775 0)
(-0.211498 0.0669334 0)
(-0.221117 0.0266893 0)
(-0.223493 -0.0157361 0)
(-0.21831 -0.0579967 0)
(-0.205391 -0.0974669 0)
(-0.18481 -0.131132 0)
(-0.15712 -0.155583 0)
(-0.123656 -0.167195 0)
(-0.0867997 -0.162549 0)
(-0.0502038 -0.139112 0)
(-0.0197002 -0.0961318 0)
(-0.00344354 -0.0358586 0)
(-0.00381295 0.0459577 0)
(-0.0207355 0.117274 0)
(-0.0514372 0.165088 0)
(-0.0875646 0.190022 0)
(-0.123765 0.194808 0)
(-0.157079 0.182904 0)
(-0.185677 0.157795 0)
(-0.208518 0.122653 0)
(-0.225064 0.0802427 0)
(-0.235001 0.0330017 0)
(-0.238048 -0.0167766 0)
(-0.23386 -0.0666996 0)
(-0.222043 -0.114021 0)
(-0.202279 -0.155415 0)
(-0.174608 -0.186861 0)
(-0.139851 -0.203726 0)
(-0.10007 -0.201187 0)
(-0.0590583 -0.17507 0)
(-0.0237036 -0.12313 0)
(-0.00428168 -0.0469443 0)
(-0.00454749 0.0575395 0)
(-0.0239434 0.144292 0)
(-0.0580186 0.200139 0)
(-0.0967077 0.227234 0)
(-0.134014 0.230167 0)
(-0.167121 0.213996 0)
(-0.194665 0.183356 0)
(-0.216177 0.142121 0)
(-0.231661 0.0933889 0)
(-0.241219 0.0396587 0)
(-0.244808 -0.016878 0)
(-0.242104 -0.0739889 0)
(-0.232482 -0.129024 0)
(-0.215136 -0.178544 0)
(-0.189382 -0.218022 0)
(-0.1552 -0.241748 0)
(-0.113914 -0.243149 0)
(-0.0690809 -0.215715 0)
(-0.0285974 -0.154767 0)
(-0.00539868 -0.0603796 0)
(-0.00556591 0.0710509 0)
(-0.0279232 0.174673 0)
(-0.0653218 0.237994 0)
(-0.105549 0.265701 0)
(-0.142099 0.265132 0)
(-0.172681 0.243484 0)
(-0.196787 0.206769 0)
(-0.21483 0.159579 0)
(-0.227573 0.105234 0)
(-0.235691 0.0461175 0)
(-0.239484 -0.0159041 0)
(-0.238719 -0.0790164 0)
(-0.232576 -0.140957 0)
(-0.219705 -0.198474 0)
(-0.198516 -0.246785 0)
(-0.167761 -0.279181 0)
(-0.127443 -0.287044 0)
(-0.0802164 -0.260687 0)
(-0.0346637 -0.191583 0)
(-0.00694292 -0.0767766 0)
(-0.00710682 0.0871228 0)
(-0.0331804 0.208772 0)
(-0.0735771 0.277917 0)
(-0.113486 0.303579 0)
(-0.146321 0.297143 0)
(-0.170984 0.268562 0)
(-0.188357 0.225379 0)
(-0.200082 0.172805 0)
(-0.207882 0.114175 0)
(-0.213117 0.0515203 0)
(-0.216518 -0.0138705 0)
(-0.218034 -0.0808858 0)
(-0.216732 -0.147991 0)
(-0.210772 -0.212532 0)
(-0.197565 -0.269912 0)
(-0.174292 -0.312747 0)
(-0.138911 -0.330305 0)
(-0.0921137 -0.308846 0)
(-0.0422922 -0.233995 0)
(-0.00917241 -0.0970151 0)
(-0.00961387 0.106877 0)
(-0.0405083 0.246957 0)
(-0.0828486 0.318403 0)
(-0.11909 0.337807 0)
(-0.143634 0.322359 0)
(-0.157647 0.285323 0)
(-0.16405 0.235689 0)
(-0.166008 0.17897 0)
(-0.166287 0.118178 0)
(-0.16693 0.0546983 0)
(-0.169107 -0.0110053 0)
(-0.173023 -0.0787771 0)
(-0.177796 -0.148141 0)
(-0.181294 -0.217514 0)
(-0.180069 -0.283129 0)
(-0.169591 -0.337636 0)
(-0.145062 -0.368598 0)
(-0.103736 -0.357635 0)
(-0.0519617 -0.282005 0)
(-0.0125285 -0.122404 0)
(-0.0138375 0.132246 0)
(-0.0509104 0.289273 0)
(-0.092319 0.356398 0)
(-0.118908 0.363391 0)
(-0.128353 0.335271 0)
(-0.125581 0.288698 0)
(-0.116134 0.233522 0)
(-0.10473 0.174899 0)
(-0.0949855 0.115017 0)
(-0.0893925 0.0543063 0)
(-0.0894206 -0.00776762 0)
(-0.0955511 -0.0721372 0)
(-0.107163 -0.139594 0)
(-0.122245 -0.210054 0)
(-0.136992 -0.281359 0)
(-0.145505 -0.347358 0)
(-0.139922 -0.39515 0)
(-0.112396 -0.402063 0)
(-0.0639412 -0.334507 0)
(-0.0176725 -0.154856 0)
(-0.0207286 0.166457 0)
(-0.0647491 0.334399 0)
(-0.0981571 0.38576 0)
(-0.1048 0.372429 0)
(-0.0897843 0.328487 0)
(-0.0633007 0.27281 0)
(-0.033488 0.214656 0)
(-0.00604073 0.157745 0)
(0.0152607 0.102835 0)
(0.0280266 0.0491724 0)
(0.0308352 -0.00477214 0)
(0.0230185 -0.060917 0)
(0.00471445 -0.121262 0)
(-0.0227689 -0.187402 0)
(-0.0562366 -0.25949 0)
(-0.0895745 -0.334083 0)
(-0.11262 -0.400169 0)
(-0.111472 -0.433135 0)
(-0.0769952 -0.387829 0)
(-0.0251695 -0.197131 0)
(-0.0302656 0.215116 0)
(-0.0783835 0.376866 0)
(-0.0879844 0.394072 0)
(-0.058575 0.352625 0)
(-0.00841199 0.292879 0)
(0.0472238 0.231995 0)
(0.0992357 0.17609 0)
(0.142577 0.126145 0)
(0.174567 0.0810393 0)
(0.193786 0.0388711 0)
(0.199376 -0.00258335 0)
(0.190693 -0.0457902 0)
(0.167265 -0.0934871 0)
(0.12909 -0.148619 0)
(0.0774636 -0.21383 0)
(0.0165921 -0.289729 0)
(-0.0438093 -0.370531 0)
(-0.0855712 -0.435412 0)
(-0.0845255 -0.432704 0)
(-0.0338077 -0.253486 0)
(-0.0356878 0.283823 0)
(-0.0735996 0.399018 0)
(-0.0282929 0.358114 0)
(0.0574148 0.287362 0)
(0.149095 0.220058 0)
(0.232238 0.163797 0)
(0.301361 0.118631 0)
(0.354762 0.0821479 0)
(0.392404 0.0515899 0)
(0.414671 0.0244735 0)
(0.421726 -0.00144924 0)
(0.413209 -0.0284327 0)
(0.388124 -0.0590605 0)
(0.344902 -0.0965971 0)
(0.2819 -0.145235 0)
(0.198833 -0.209618 0)
(0.0996306 -0.292097 0)
(-0.00130333 -0.384859 0)
(-0.0647007 -0.446216 0)
(-0.0339683 -0.32474 0)
(0.00853339 0.336139 0)
(0.0213575 0.351841 0)
(0.162938 0.252236 0)
(0.31247 0.172348 0)
(0.432207 0.117405 0)
(0.523803 0.0799285 0)
(0.592199 0.0540896 0)
(0.641274 0.0355953 0)
(0.674144 0.0214782 0)
(0.692965 0.00973983 0)
(0.698834 -0.00108661 0)
(0.691781 -0.012316 0)
(0.670681 -0.0254708 0)
(0.633032 -0.0427503 0)
(0.574706 -0.0677244 0)
(0.48993 -0.106229 0)
(0.370981 -0.166987 0)
(0.212324 -0.259993 0)
(0.0521329 -0.375795 0)
(0.0234337 -0.362213 0)
(0.358471 0.174889 0)
(0.473252 0.152858 0)
(0.665654 0.091606 0)
(0.80616 0.0529471 0)
(0.889926 0.0311545 0)
(0.942415 0.018667 0)
(0.976974 0.0113318 0)
(0.999642 0.00680782 0)
(1.01379 0.00377018 0)
(1.02134 0.00147651 0)
(1.02322 -0.000525036 0)
(1.01957 -0.00258897 0)
(1.00982 -0.0051173 0)
(0.992341 -0.00876304 0)
(0.963902 -0.0147839 0)
(0.918294 -0.0257125 0)
(0.841529 -0.0465788 0)
(0.703775 -0.0866726 0)
(0.501368 -0.153366 0)
(0.371734 -0.179735 0)
)
;

boundaryField
{
    movingWall
    {
        type            fixedValue;
        value           uniform (1.2 0 0);
    }
    fixedWalls
    {
        type            noSlip;
    }
    frontAndBack
    {
        type            empty;
    }
}


// ************************************************************************* //
