/*--------------------------------*- C++ -*----------------------------------*\
  =========                 |
  \\      /  F ield         | OpenFOAM: The Open Source CFD Toolbox
   \\    /   O peration     | Website:  https://openfoam.org
    \\  /    A nd           | Version:  8
     \\/     M anipulation  |
\*---------------------------------------------------------------------------*/
FoamFile
{
    version     2.0;
    format      ascii;
    class       volScalarField;
    location    "0.1";
    object      p;
}
// * * * * * * * * * * * * * * * * * * * * * * * * * * * * * * * * * * * * * //

dimensions      [0 2 -2 0 0 0 0];

internalField   nonuniform List<scalar> 
400
(
1.54972e-08
-0.0187268
-0.0411295
-0.0579877
-0.064317
-0.0580624
-0.039028
-0.00827114
0.0322244
0.079673
0.130547
0.180691
0.225589
0.260838
0.282812
0.289468
0.281169
0.261403
0.237201
0.218977
0.0178387
-0.00148134
-0.0189779
-0.030463
-0.0338037
-0.0275794
-0.0115312
0.0136389
0.0464833
0.0848782
0.126063
0.166746
0.203342
0.232366
0.250989
0.257653
0.252699
0.238666
0.219572
0.200996
0.0404676
0.0140296
-0.00457864
-0.0148772
-0.0175058
-0.0118392
0.00218317
0.0239604
0.0523683
0.085731
0.121784
0.157723
0.19039
0.216625
0.233745
0.240118
0.235749
0.222344
0.201417
0.175464
0.0597293
0.0236819
0.000954277
-0.0105398
-0.0138252
-0.00900871
0.00370624
0.0237102
0.0500792
0.0814392
0.115828
0.150662
0.182868
0.209182
0.226624
0.233082
0.228013
0.212423
0.185928
0.149353
0.0698204
0.0239116
-0.00370309
-0.0171467
-0.0215135
-0.0175222
-0.00559239
0.0136662
0.0395104
0.0708233
0.105867
0.142161
0.176531
0.20537
0.225105
0.232856
0.227324
0.208812
0.175343
0.126799
0.066155
0.0106939
-0.0218912
-0.0374525
-0.042915
-0.0394964
-0.0277591
-0.00826431
0.0184532
0.0515418
0.0894731
0.129812
0.169173
0.203415
0.228098
0.239243
0.234503
0.213323
0.172171
0.110385
0.0448036
-0.0198029
-0.0571348
-0.0746344
-0.0809325
-0.0776738
-0.0654951
-0.0448382
-0.0159611
0.0206161
0.0636298
0.110717
0.158244
0.201393
0.23458
0.252324
0.250784
0.228165
0.179052
0.10233
0.0020213
-0.0713379
-0.112984
-0.13195
-0.138581
-0.134941
-0.121691
-0.099072
-0.0669547
-0.0253954
0.0247533
0.0813326
0.140529
0.196792
0.243136
0.27209
0.277671
0.256139
0.199371
0.105542
-0.0660196
-0.147818
-0.19315
-0.212783
-0.218948
-0.214207
-0.199235
-0.173985
-0.137797
-0.090062
-0.0309765
0.0377647
0.112388
0.18669
0.252104
0.298631
0.317265
0.301187
0.238067
0.124627
-0.163403
-0.253473
-0.301541
-0.320485
-0.324856
-0.317923
-0.300414
-0.271919
-0.231071
-0.176333
-0.106901
-0.0236029
0.0702404
0.168071
0.25975
0.332266
0.372515
0.36893
0.302531
0.167039
-0.294752
-0.393131
-0.442301
-0.458112
-0.458333
-0.447334
-0.426002
-0.393493
-0.347529
-0.28533
-0.204666
-0.104948
0.0115792
0.138615
0.264808
0.373908
0.447606
0.467367
0.403811
0.244678
-0.465925
-0.572797
-0.619933
-0.628065
-0.619885
-0.601496
-0.574083
-0.536267
-0.484616
-0.414745
-0.322512
-0.205276
-0.0633679
0.0981433
0.267594
0.425855
0.548634
0.607823
0.558293
0.376369
-0.685727
-0.800808
-0.839516
-0.83156
-0.807524
-0.776064
-0.738706
-0.693308
-0.634927
-0.557155
-0.453443
-0.318421
-0.149564
0.050612
0.271711
0.493093
0.684649
0.806261
0.790167
0.592047
-0.969957
-1.08999
-1.1069
-1.06773
-1.01546
-0.961928
-0.908616
-0.852027
-0.785114
-0.698917
-0.583981
-0.431607
-0.235481
0.00593148
0.285774
0.584662
0.868725
1.08479
1.13511
0.940411
-1.35053
-1.46131
-1.42822
-1.33167
-1.23212
-1.14369
-1.06632
-0.993798
-0.915988
-0.820569
-0.69472
-0.525934
-0.303364
-0.0199842
0.323607
0.713666
1.1177
1.47216
1.64477
1.50204
-1.8936
-1.94878
-1.80784
-1.61136
-1.43781
-1.29857
-1.18823
-1.09524
-1.00481
-0.899867
-0.763929
-0.580315
-0.333161
-0.00878926
0.401272
0.894727
1.44952
2.00109
2.38836
2.40549
-2.73568
-2.60357
-2.24518
-1.88643
-1.60532
-1.39862
-1.2486
-1.13368
-1.03114
-0.918781
-0.775415
-0.580107
-0.311726
0.0510416
0.528621
1.1371
1.87731
2.70154
3.45129
3.85215
-4.20862
-3.49044
-2.70866
-2.11134
-1.69176
-1.40871
-1.2217
-1.09175
-0.985012
-0.87283
-0.72965
-0.53067
-0.2498
0.142602
0.682087
1.41153
2.37098
3.56545
4.94805
6.26285
-7.2409
-4.63056
-2.97726
-2.09057
-1.56016
-1.23959
-1.05378
-0.941642
-0.857698
-0.768679
-0.647202
-0.467106
-0.200234
0.188814
0.749709
1.55774
2.71808
4.38318
6.95394
10.6321
-12.8217
-5.73408
-2.60297
-1.52648
-1.04369
-0.804449
-0.70453
-0.670996
-0.655125
-0.625663
-0.558697
-0.431913
-0.220132
0.108798
0.604972
1.36001
2.55578
4.62467
8.93586
17.2129
)
;

boundaryField
{
    movingWall
    {
        type            zeroGradient;
    }
    fixedWalls
    {
        type            zeroGradient;
    }
    frontAndBack
    {
        type            empty;
    }
}


// ************************************************************************* //
