/*--------------------------------*- C++ -*----------------------------------*\
  =========                 |
  \\      /  F ield         | OpenFOAM: The Open Source CFD Toolbox
   \\    /   O peration     | Website:  https://openfoam.org
    \\  /    A nd           | Version:  8
     \\/     M anipulation  |
\*---------------------------------------------------------------------------*/
FoamFile
{
    version     2.0;
    format      ascii;
    class       volScalarField;
    location    "0.2";
    object      p;
}
// * * * * * * * * * * * * * * * * * * * * * * * * * * * * * * * * * * * * * //

dimensions      [0 2 -2 0 0 0 0];

internalField   nonuniform List<scalar> 
400
(
3.49922e-07
-0.00699271
-0.0155313
-0.0220392
-0.0244416
-0.021821
-0.0141062
-0.00181879
0.0141071
0.0324427
0.0517505
0.0704699
0.0870209
0.0999404
0.108057
0.110706
0.107982
0.100999
0.0921361
0.0851662
0.0069307
-0.000268972
-0.00694883
-0.011406
-0.0126595
-0.0100721
-0.00355459
0.00652555
0.0194688
0.0343258
0.0499652
0.0651492
0.0786272
0.0892529
0.0961261
0.098755
0.0972389
0.0923728
0.0854123
0.0782748
0.0159668
0.0060072
-0.00119807
-0.00527787
-0.00628323
-0.00388823
0.00190717
0.0107577
0.0220699
0.0350496
0.0487427
0.0620921
0.0740147
0.0835017
0.0897345
0.0922181
0.0909434
0.0863911
0.0788236
0.0689094
0.0240619
0.0103427
0.0014224
-0.00320848
-0.00445992
-0.00228371
0.0031924
0.0115744
0.0222931
0.0346222
0.0476914
0.0605203
0.0720778
0.0813656
0.0875184
0.0899262
0.0884117
0.0831823
0.0737103
0.059909
0.0291668
0.0115272
0.000571641
-0.00487008
-0.00644504
-0.00434486
0.00117333
0.00964395
0.0204872
0.033003
0.0463562
0.0595883
0.0716567
0.0815033
0.0881423
0.0907834
0.0890441
0.0828782
0.071086
0.0530725
0.0297659
0.00820567
-0.00484583
-0.011099
-0.012865
-0.0105501
-0.0045385
0.00462179
0.0163206
0.0298581
0.0444036
0.0589827
0.072496
0.08377
0.0916355
0.0950581
0.093402
0.0863559
0.0720912
0.049636
0.0245532
-0.000941213
-0.0160258
-0.022911
-0.0245613
-0.0215977
-0.0145359
-0.00401422
0.00931763
0.0247491
0.0414401
0.058381
0.0743863
0.0881241
0.0981814
0.103206
0.102234
0.0946303
0.0778826
0.0506707
0.0121942
-0.0173005
-0.0342545
-0.0414133
-0.0424575
-0.0382557
-0.0294728
-0.0168446
-0.00105928
0.0171687
0.0369977
0.0573868
0.0770571
0.0944911
0.107976
0.115755
0.116424
0.108898
0.0898083
0.0574072
-0.00885068
-0.0424758
-0.0610187
-0.0678775
-0.0676003
-0.0613783
-0.0500614
-0.0344907
-0.01538
0.006579
0.0305768
0.0555743
0.0802207
0.10281
0.121286
0.133382
0.137105
0.130709
0.109641
0.0715195
-0.0404847
-0.0784292
-0.0980856
-0.103748
-0.101111
-0.091819
-0.0769629
-0.0574972
-0.0341331
-0.00748794
0.0217262
0.0525418
0.0835988
0.113038
0.138441
0.156936
0.165737
0.162126
0.139828
0.0954228
-0.0851915
-0.127672
-0.147591
-0.150619
-0.144077
-0.130268
-0.110598
-0.0861344
-0.0575345
-0.0252574
0.0101866
0.048018
0.0869856
0.125175
0.159843
0.187441
0.204173
0.205905
0.18381
0.132674
-0.146432
-0.193571
-0.212154
-0.210172
-0.197371
-0.177005
-0.150871
-0.120118
-0.0852591
-0.046466
-0.00389613
0.0420315
0.0903632
0.139316
0.185966
0.226103
0.254724
0.265732
0.24649
0.188612
-0.229461
-0.280871
-0.295007
-0.284021
-0.261345
-0.231534
-0.196793
-0.158253
-0.116112
-0.0700679
-0.0197171
0.0351143
0.0940412
0.155721
0.21735
0.274262
0.320187
0.346473
0.334924
0.271501
-0.343097
-0.39658
-0.400064
-0.37335
-0.335313
-0.292048
-0.246013
-0.198036
-0.14771
-0.0939773
-0.0356098
0.0284488
0.0987317
0.174781
0.254456
0.333165
0.403668
0.454372
0.459386
0.394774
-0.503504
-0.551333
-0.531606
-0.478012
-0.416598
-0.354658
-0.294257
-0.235312
-0.176295
-0.115005
-0.0490664
0.0237759
0.105372
0.19672
0.297164
0.403252
0.507828
0.596789
0.634808
0.581375
-0.741088
-0.760867
-0.693213
-0.595042
-0.499311
-0.412605
-0.335
-0.264284
-0.196991
-0.129253
-0.0572127
0.0228775
0.11456
0.220921
0.343901
0.482987
0.633455
0.780996
0.881752
0.870465
-1.11314
-1.0465
-0.885812
-0.717614
-0.574057
-0.456576
-0.360255
-0.278605
-0.205002
-0.133328
-0.0579623
0.0265114
0.125587
0.245035
0.390745
0.567816
0.777919
1.01171
1.22598
1.32847
-1.75191
-1.43391
-1.09614
-0.826945
-0.623663
-0.473044
-0.360531
-0.272238
-0.196964
-0.125952
-0.0518459
0.0322723
0.133774
0.261423
0.426419
0.642847
0.92452
1.2785
1.69963
2.09988
-3.01375
-1.93396
-1.23958
-0.846952
-0.595176
-0.4282
-0.315706
-0.234384
-0.168462
-0.107402
-0.0431751
0.0315002
0.124729
0.247167
0.414927
0.653064
0.995722
1.49876
2.32134
3.5501
-5.19593
-2.42213
-1.1485
-0.665756
-0.426506
-0.290748
-0.211363
-0.1597
-0.119235
-0.0805747
-0.0373158
0.0161864
0.0862771
0.182138
0.319928
0.530433
0.871528
1.49413
2.93233
5.87246
)
;

boundaryField
{
    movingWall
    {
        type            zeroGradient;
    }
    fixedWalls
    {
        type            zeroGradient;
    }
    frontAndBack
    {
        type            empty;
    }
}


// ************************************************************************* //
