/*--------------------------------*- C++ -*----------------------------------*\
  =========                 |
  \\      /  F ield         | OpenFOAM: The Open Source CFD Toolbox
   \\    /   O peration     | Website:  https://openfoam.org
    \\  /    A nd           | Version:  8
     \\/     M anipulation  |
\*---------------------------------------------------------------------------*/
FoamFile
{
    version     2.0;
    format      ascii;
    class       surfaceScalarField;
    location    "0.2";
    object      phi;
}
// * * * * * * * * * * * * * * * * * * * * * * * * * * * * * * * * * * * * * //

dimensions      [0 3 -1 0 0 0 0];

internalField   nonuniform List<scalar> 
760
(
1.69427e-08
-1.69456e-08
-2.70064e-08
4.39497e-08
-1.37479e-07
1.10472e-07
-2.94658e-07
1.57179e-07
-4.74906e-07
1.80247e-07
-6.55955e-07
1.8105e-07
-8.18667e-07
1.62713e-07
-9.47657e-07
1.28991e-07
-1.03143e-06
8.37701e-08
-1.06244e-06
3.10134e-08
-1.03734e-06
-2.50977e-08
-9.57331e-07
-8.00124e-08
-8.2858e-07
-1.28751e-07
-6.62574e-07
-1.66007e-07
-4.76111e-07
-1.86463e-07
-2.90699e-07
-1.85412e-07
-1.30946e-07
-1.59753e-07
-2.15506e-08
-1.09396e-07
1.90191e-08
-4.057e-08
1.90183e-08
-4.13755e-08
2.44291e-08
-2.17104e-07
2.19678e-07
-5.21357e-07
4.14725e-07
-9.17285e-07
5.53108e-07
-1.35769e-06
6.20656e-07
-1.79484e-06
6.18198e-07
-2.18564e-06
5.53508e-07
-2.49432e-06
4.37675e-07
-2.6938e-06
2.83246e-07
-2.76643e-06
1.03645e-07
-2.70477e-06
-8.67564e-08
-2.51233e-06
-2.72456e-07
-2.20423e-06
-4.36847e-07
-1.8075e-06
-5.62742e-07
-1.36038e-06
-6.33584e-07
-9.10207e-07
-6.35581e-07
-5.08991e-07
-5.60969e-07
-2.0605e-07
-4.12337e-07
-3.64715e-08
-2.10149e-07
-1.74532e-08
-1.11126e-07
1.35555e-07
-4.29221e-07
5.37772e-07
-9.18043e-07
9.03548e-07
-1.52183e-06
1.15689e-06
-2.17599e-06
1.27482e-06
-2.81603e-06
1.25824e-06
-3.38346e-06
1.12094e-06
-3.82942e-06
8.8363e-07
-4.11669e-06
5.7052e-07
-4.22109e-06
2.08042e-07
-4.13248e-06
-1.75367e-07
-3.85579e-06
-5.49145e-07
-3.41179e-06
-8.80846e-07
-2.83728e-06
-1.13725e-06
-2.18408e-06
-1.28678e-06
-1.51608e-06
-1.30359e-06
-9.03601e-07
-1.17344e-06
-4.14793e-07
-9.01145e-07
-1.04088e-07
-5.20854e-07
-1.21541e-07
-1.74802e-07
3.10357e-07
-6.3137e-07
9.94339e-07
-1.29815e-06
1.57032e-06
-2.09574e-06
1.95449e-06
-2.94213e-06
2.12121e-06
-3.75911e-06
2.07522e-06
-4.47719e-06
1.83902e-06
-5.0388e-06
1.44524e-06
-5.40029e-06
9.32009e-07
-5.53318e-06
3.40926e-07
-5.42527e-06
-2.83276e-07
-5.08177e-06
-8.92642e-07
-4.52628e-06
-1.43633e-06
-3.80128e-06
-1.86225e-06
-2.96743e-06
-2.12063e-06
-2.10089e-06
-2.17013e-06
-1.28791e-06
-1.98643e-06
-6.1652e-07
-1.57254e-06
-1.66319e-07
-9.71054e-07
-2.8786e-07
-2.32876e-07
5.43234e-07
-8.22407e-07
1.58387e-06
-1.66174e-06
2.40966e-06
-2.64532e-06
2.93806e-06
-3.67266e-06
3.14855e-06
-4.65282e-06
3.05538e-06
-5.50766e-06
2.69386e-06
-6.17375e-06
2.11134e-06
-6.60343e-06
1.36168e-06
-6.76541e-06
5.02912e-07
-6.64564e-06
-4.0305e-07
-6.24835e-06
-1.28993e-06
-5.59752e-06
-2.08717e-06
-4.73808e-06
-2.72169e-06
-3.73641e-06
-3.12231e-06
-2.67885e-06
-3.22768e-06
-1.66756e-06
-2.99772e-06
-8.13061e-07
-2.42703e-06
-2.2447e-07
-1.55965e-06
-5.12329e-07
-2.88257e-07
8.3149e-07
-1.0077e-06
2.30331e-06
-2.01642e-06
3.41838e-06
-3.18112e-06
4.10277e-06
-4.38206e-06
4.34949e-06
-5.51619e-06
4.18952e-06
-6.49853e-06
3.6762e-06
-7.26208e-06
2.87488e-06
-7.75719e-06
1.8568e-06
-7.95105e-06
6.96767e-07
-7.82771e-06
-5.26394e-07
-7.38914e-06
-1.72849e-06
-6.65723e-06
-2.81908e-06
-5.6763e-06
-3.70262e-06
-4.51548e-06
-4.28312e-06
-3.26961e-06
-4.47356e-06
-2.05712e-06
-4.21021e-06
-1.01392e-06
-3.47024e-06
-2.82844e-07
-2.29072e-06
-7.95173e-07
-3.4386e-07
1.17535e-06
-1.19356e-06
3.15301e-06
-2.37051e-06
4.59533e-06
-3.71199e-06
5.44425e-06
-5.07857e-06
5.71607e-06
-6.35627e-06
5.46721e-06
-7.45551e-06
4.77543e-06
-8.30842e-06
3.7278e-06
-8.86582e-06
2.41419e-06
-9.09477e-06
9.25724e-07
-8.97764e-06
-6.43527e-07
-8.51278e-06
-2.19336e-06
-7.71722e-06
-3.61465e-06
-6.63095e-06
-4.78888e-06
-5.32209e-06
-5.59199e-06
-3.89117e-06
-5.90447e-06
-2.47256e-06
-5.62882e-06
-1.2302e-06
-4.7126e-06
-3.46067e-07
-3.17486e-06
-1.14124e-06
-4.02306e-07
1.57766e-06
-1.38579e-06
4.1365e-06
-2.73065e-06
5.94018e-06
-4.24217e-06
6.95578e-06
-5.76132e-06
7.23521e-06
-7.16545e-06
6.87135e-06
-8.36401e-06
5.97399e-06
-9.29214e-06
4.65594e-06
-9.90448e-06
3.02653e-06
-1.01702e-05
1.19148e-06
-1.00707e-05
-7.43093e-07
-9.59925e-06
-2.66478e-06
-8.76493e-06
-4.44896e-06
-7.59857e-06
-5.95524e-06
-6.1616e-06
-7.02897e-06
-4.55534e-06
-7.51073e-06
-2.92768e-06
-7.25648e-06
-1.47269e-06
-6.16759e-06
-4.18666e-07
-4.22888e-06
-1.55991e-06
-4.66152e-07
2.04381e-06
-1.58966e-06
5.26001e-06
-3.10104e-06
7.45156e-06
-4.76974e-06
8.62448e-06
-6.41802e-06
8.8835e-06
-7.91875e-06
8.37207e-06
-9.18603e-06
7.24127e-06
-1.01638e-05
5.63371e-06
-1.08154e-05
3.67814e-06
-1.11156e-05
1.49168e-06
-1.10459e-05
-8.12763e-07
-1.0594e-05
-3.11671e-06
-9.75716e-06
-5.28581e-06
-8.55087e-06
-7.16154e-06
-7.02177e-06
-8.55807e-06
-5.26356e-06
-9.26894e-06
-3.43184e-06
-9.0882e-06
-1.75113e-06
-7.84829e-06
-5.05189e-07
-5.47482e-06
-2.06509e-06
-5.3865e-07
2.58246e-06
-1.81097e-06
6.53233e-06
-3.48383e-06
9.12442e-06
-5.28563e-06
1.04263e-05
-7.02255e-06
1.06204e-05
-8.57008e-06
9.9196e-06
-9.85561e-06
8.5268e-06
-1.08401e-05
6.61818e-06
-1.15023e-05
4.34033e-06
-1.18272e-05
1.81665e-06
-1.17993e-05
-8.40685e-07
-1.14e-05
-3.51604e-06
-1.06114e-05
-6.07442e-06
-9.42628e-06
-8.34665e-06
-7.86549e-06
-1.01189e-05
-6.00202e-06
-1.11324e-05
-3.98783e-06
-1.11024e-05
-2.07429e-06
-9.76183e-06
-6.10766e-07
-6.93835e-06
-2.67586e-06
-6.25117e-07
3.20758e-06
-2.05799e-06
7.9652e-06
-3.87975e-06
1.09462e-05
-5.77188e-06
1.23184e-05
-7.53087e-06
1.23794e-05
-9.04664e-06
1.14354e-05
-1.02724e-05
9.75258e-06
-1.1197e-05
7.54279e-06
-1.18232e-05
4.96648e-06
-1.21523e-05
2.14575e-06
-1.21751e-05
-8.17877e-07
-1.18679e-05
-3.82322e-06
-1.11949e-05
-6.74738e-06
-1.01187e-05
-9.42293e-06
-8.62059e-06
-1.16169e-05
-6.73437e-06
-1.30186e-05
-4.58869e-06
-1.32481e-05
-2.4501e-06
-1.19004e-05
-7.42153e-07
-8.64629e-06
-3.41801e-06
-7.35201e-07
3.94278e-06
-2.34382e-06
9.57382e-06
-4.28739e-06
1.28898e-05
-6.19688e-06
1.42279e-05
-7.87308e-06
1.40556e-05
-9.23943e-06
1.28017e-05
-1.02923e-05
1.08054e-05
-1.10615e-05
8.312e-06
-1.1583e-05
5.48803e-06
-1.18812e-05
2.4439e-06
-1.19577e-05
-7.41403e-07
-1.17862e-05
-3.99472e-06
-1.13125e-05
-7.22107e-06
-1.04628e-05
-1.02726e-05
-9.16527e-06
-1.29145e-05
-7.38999e-06
-1.47939e-05
-5.21143e-06
-1.54266e-05
-2.8852e-06
-1.42267e-05
-9.09457e-07
-1.0622e-05
-4.32747e-06
-8.86575e-07
4.82935e-06
-2.68823e-06
1.13755e-05
-4.69816e-06
1.48997e-05
-6.50319e-06
1.60329e-05
-7.93725e-06
1.54897e-05
-8.98673e-06
1.38512e-05
-9.71293e-06
1.15316e-05
-1.02004e-05
8.79949e-06
-1.05262e-05
5.81385e-06
-1.07425e-05
2.66015e-06
-1.08662e-05
-6.17696e-07
-1.08729e-05
-3.98801e-06
-1.06934e-05
-7.40053e-06
-1.02169e-05
-1.07491e-05
-9.30714e-06
-1.38242e-05
-7.84424e-06
-1.62568e-05
-5.80442e-06
-1.74664e-05
-3.38226e-06
-1.66488e-05
-1.12885e-06
-1.28754e-05
-5.45632e-06
-1.1104e-06
5.93976e-06
-3.11521e-06
1.33803e-05
-5.07866e-06
1.68631e-05
-6.57873e-06
1.7533e-05
-7.53732e-06
1.64482e-05
-8.0455e-06
1.43594e-05
-8.25286e-06
1.1739e-05
-8.30797e-06
8.8546e-06
-8.33088e-06
5.83676e-06
-8.40165e-06
2.73092e-06
-8.55472e-06
-4.64629e-07
-8.77333e-06
-3.7694e-06
-8.98249e-06
-7.19137e-06
-9.04284e-06
-1.06887e-05
-8.75405e-06
-1.4113e-05
-7.88533e-06
-1.71255e-05
-6.26094e-06
-1.90908e-05
-3.93007e-06
-1.89797e-05
-1.42584e-06
-1.53797e-05
-6.88216e-06
-1.45606e-06
7.39582e-06
-3.63368e-06
1.55579e-05
-5.32209e-06
1.85515e-05
-6.19406e-06
1.8405e-05
-6.35313e-06
1.66073e-05
-6.04466e-06
1.40509e-05
-5.52145e-06
1.12158e-05
-4.99193e-06
8.32508e-06
-4.60835e-06
5.45318e-06
-4.46946e-06
2.59203e-06
-4.62399e-06
-3.10097e-07
-5.06872e-06
-3.32467e-06
-5.73839e-06
-6.5217e-06
-6.48815e-06
-9.939e-06
-7.07505e-06
-1.35261e-05
-7.15875e-06
-1.70418e-05
-6.36376e-06
-1.98858e-05
-4.47195e-06
-2.08715e-05
-1.83423e-06
-1.80174e-05
-8.71639e-06
-1.97842e-06
9.37423e-06
-4.16171e-06
1.77412e-05
-5.12607e-06
1.95159e-05
-4.87598e-06
1.81549e-05
-3.82873e-06
1.55601e-05
-2.41811e-06
1.26403e-05
-9.84985e-07
9.78262e-06
2.34086e-07
7.10601e-06
1.08561e-06
4.60165e-06
1.47474e-06
2.2029e-06
1.34927e-06
-1.84626e-07
6.95696e-07
-2.67109e-06
-4.50528e-07
-5.37547e-06
-1.9778e-06
-8.41172e-06
-3.65414e-06
-1.18498e-05
-5.07829e-06
-1.56177e-05
-5.67141e-06
-1.92927e-05
-4.81371e-06
-2.17292e-05
-2.3685e-06
-2.04626e-05
-1.10849e-05
-2.65541e-06
1.20296e-05
-4.29416e-06
1.93799e-05
-3.71468e-06
1.89364e-05
-1.67779e-06
1.6118e-05
9.76729e-07
1.29055e-05
3.67004e-06
9.94701e-06
6.05376e-06
7.39891e-06
7.93599e-06
5.22377e-06
9.2153e-06
3.32235e-06
9.83513e-06
1.58307e-06
9.75795e-06
-1.07445e-07
8.95574e-06
-1.86888e-06
7.41609e-06
-3.83582e-06
5.17011e-06
-6.16575e-06
2.35265e-06
-9.03232e-06
-6.95987e-07
-1.2569e-05
-3.30247e-06
-1.66862e-05
-4.39632e-06
-2.06354e-05
-2.91537e-06
-2.19436e-05
-1.40003e-05
-3.09878e-06
1.51284e-05
-2.68461e-06
1.89658e-05
7.31853e-07
1.552e-05
5.18283e-06
1.1667e-05
9.55518e-06
8.5332e-06
1.33605e-05
6.1417e-06
1.64191e-05
4.34026e-06
1.86912e-05
2.95172e-06
2.01866e-05
1.82697e-06
2.09189e-05
8.50757e-07
2.0883e-05
-7.16298e-08
2.00453e-05
-1.0311e-06
1.83416e-05
-2.13211e-06
1.56907e-05
-3.51489e-06
1.20388e-05
-5.38045e-06
7.47186e-06
-8.00206e-06
2.44961e-06
-1.1664e-05
-1.78656e-06
-1.63992e-05
-2.93222e-06
-2.07979e-05
-1.69325e-05
-1.01503e-06
1.61435e-05
4.73758e-06
1.32132e-05
1.21358e-05
8.1217e-06
1.87042e-05
5.09869e-06
2.39471e-05
3.29025e-06
2.79358e-05
2.15305e-06
3.08606e-05
1.41544e-06
3.29009e-05
9.11427e-07
3.41891e-05
5.38709e-07
3.48052e-05
2.34698e-07
3.47769e-05
-4.33153e-08
3.40771e-05
-3.31339e-07
3.2617e-05
-6.72043e-07
3.02318e-05
-1.12961e-06
2.66686e-05
-1.81726e-06
2.16096e-05
-2.94303e-06
1.48305e-05
-4.88496e-06
6.74632e-06
-8.31497e-06
-7.13413e-08
-1.39802e-05
-1.70038e-05
1.61435e-05
2.93566e-05
3.74783e-05
4.2577e-05
4.58673e-05
4.80203e-05
4.94358e-05
5.03472e-05
5.08859e-05
5.11206e-05
5.10773e-05
5.07459e-05
5.00739e-05
4.89443e-05
4.7127e-05
4.4184e-05
3.9299e-05
3.09841e-05
1.70038e-05
)
;

boundaryField
{
    movingWall
    {
        type            calculated;
        value           uniform 0;
    }
    fixedWalls
    {
        type            calculated;
        value           uniform 0;
    }
    frontAndBack
    {
        type            empty;
        value           nonuniform List<scalar> 0();
    }
}


// ************************************************************************* //
