/*--------------------------------*- C++ -*----------------------------------*\
  =========                 |
  \\      /  F ield         | OpenFOAM: The Open Source CFD Toolbox
   \\    /   O peration     | Website:  https://openfoam.org
    \\  /    A nd           | Version:  8
     \\/     M anipulation  |
\*---------------------------------------------------------------------------*/
FoamFile
{
    version     2.0;
    format      ascii;
    class       volScalarField;
    location    "0.3";
    object      p;
}
// * * * * * * * * * * * * * * * * * * * * * * * * * * * * * * * * * * * * * //

dimensions      [0 2 -2 0 0 0 0];

internalField   nonuniform List<scalar> 
400
(
-5.32684e-06
-0.0105067
-0.0232268
-0.0328711
-0.0364255
-0.032573
-0.0212047
-0.00304626
0.0205878
0.0479359
0.0768887
0.105098
0.130134
0.149708
0.161973
0.165882
0.161595
0.150878
0.13743
0.126989
0.010399
-0.000422735
-0.0103674
-0.0169541
-0.0187998
-0.0149957
-0.00540385
0.00947319
0.0286595
0.0508004
0.0742389
0.0971142
0.1175
0.1336
0.143986
0.147876
0.145433
0.137923
0.127347
0.11667
0.0238603
0.00890194
-0.00180482
-0.007805
-0.00927787
-0.00578059
0.0026967
0.0156927
0.0323989
0.0517003
0.0722113
0.0923437
0.110421
0.124846
0.134302
0.137993
0.135907
0.12884
0.117319
0.102467
0.0357321
0.0151695
0.00194799
-0.00484318
-0.00669524
-0.0035833
0.00432371
0.0165132
0.0322373
0.0505049
0.0700698
0.0894619
0.107073
0.121299
0.130725
0.134352
0.131902
0.123759
0.109297
0.0885552
0.0428463
0.0164892
0.000299572
-0.0076775
-0.0100608
-0.00718109
0.000622269
0.0127645
0.0285194
0.046968
0.0669389
0.0870003
0.105514
0.120753
0.131078
0.135172
0.132413
0.122802
0.104729
0.0775375
0.0428281
0.0107495
-0.00847374
-0.0176606
-0.0204379
-0.0174441
-0.00917143
0.00372209
0.0205172
0.0403408
0.0620594
0.0842287
0.105111
0.122765
0.135215
0.140704
0.138172
0.127196
0.105242
0.0711574
0.0336368
-0.00408597
-0.0262275
-0.0364029
-0.0392103
-0.0355808
-0.026149
-0.0116391
0.0072397
0.0296592
0.0545162
0.0803339
0.105234
0.12699
0.143176
0.151456
0.150182
0.138389
0.112504
0.0709242
0.0132406
-0.0301061
-0.054912
-0.0656223
-0.0678679
-0.0629004
-0.0515023
-0.0344535
-0.0124313
0.0138097
0.0432257
0.0743276
0.105093
0.132967
0.15497
0.168015
0.169649
0.158122
0.128511
0.0786323
-0.0206119
-0.0696451
-0.0967115
-0.107231
-0.108045
-0.100813
-0.0864922
-0.0659071
-0.0396624
-0.00837818
0.027033
0.0651398
0.103825
0.140205
0.170663
0.191166
0.198159
0.188713
0.155972
0.0968298
-0.0705842
-0.125458
-0.154133
-0.163316
-0.161416
-0.15066
-0.132237
-0.107004
-0.0754325
-0.0379089
0.0049061
0.0517703
0.100593
0.148231
0.190404
0.221941
0.237809
0.233314
0.198723
0.129324
-0.140022
-0.200966
-0.230107
-0.236077
-0.229492
-0.213417
-0.189358
-0.158185
-0.120142
-0.075243
-0.0237198
0.0335783
0.0948005
0.156731
0.214502
0.261681
0.291343
0.296229
0.262263
0.181865
-0.233479
-0.300671
-0.328119
-0.327685
-0.313301
-0.289262
-0.257484
-0.218796
-0.173074
-0.119767
-0.0584396
0.0107324
0.0864653
0.16581
0.243583
0.312141
0.36232
0.383304
0.354527
0.263223
-0.357858
-0.430893
-0.452387
-0.440037
-0.412892
-0.376966
-0.334603
-0.286443
-0.231762
-0.169178
-0.0972897
-0.0152456
0.076683
0.176347
0.278807
0.375606
0.455269
0.502401
0.487009
0.387066
-0.524935
-0.601059
-0.607953
-0.574199
-0.526545
-0.473069
-0.416309
-0.356331
-0.291416
-0.218979
-0.136294
-0.0410615
0.0679868
0.190237
0.321934
0.454792
0.575611
0.663793
0.676473
0.575573
-0.756867
-0.825756
-0.800267
-0.729116
-0.649408
-0.570764
-0.495005
-0.420781
-0.344689
-0.262418
-0.169502
-0.0617655
0.0641666
0.210095
0.374806
0.552031
0.728734
0.87991
0.947189
0.866195
-1.09653
-1.12713
-1.03371
-0.899496
-0.771768
-0.65884
-0.559548
-0.469444
-0.382308
-0.291399
-0.190067
-0.0718989
0.0691032
0.238061
0.438008
0.667624
0.918005
1.16357
1.3322
1.3215
-1.62694
-1.53605
-1.30897
-1.07449
-0.878833
-0.72241
-0.59679
-0.491406
-0.39549
-0.299053
-0.192877
-0.0680874
0.0842656
0.273449
0.50872
0.797787
1.14223
1.52422
1.87255
2.04505
-2.54272
-2.08998
-1.60642
-1.22631
-0.944955
-0.741002
-0.592165
-0.477255
-0.378882
-0.283221
-0.178535
-0.0536975
0.103033
0.305507
0.571167
0.921783
1.37832
1.9488
2.62046
3.25909
-4.37499
-2.80346
-1.79947
-1.24181
-0.891293
-0.664067
-0.515636
-0.411228
-0.326716
-0.245643
-0.155281
-0.0438021
0.101565
0.297619
0.569325
0.955459
1.50934
2.31496
3.60784
5.51508
-7.60434
-3.49866
-1.63769
-0.954019
-0.625041
-0.444663
-0.345894
-0.286294
-0.240351
-0.193097
-0.134018
-0.0539639
0.057737
0.215634
0.444635
0.792187
1.34956
2.34776
4.57973
9.06011
)
;

boundaryField
{
    movingWall
    {
        type            zeroGradient;
    }
    fixedWalls
    {
        type            zeroGradient;
    }
    frontAndBack
    {
        type            empty;
    }
}


// ************************************************************************* //
