/*--------------------------------*- C++ -*----------------------------------*\
  =========                 |
  \\      /  F ield         | OpenFOAM: The Open Source CFD Toolbox
   \\    /   O peration     | Website:  https://openfoam.org
    \\  /    A nd           | Version:  8
     \\/     M anipulation  |
\*---------------------------------------------------------------------------*/
FoamFile
{
    version     2.0;
    format      ascii;
    class       volVectorField;
    location    "0.3";
    object      U;
}
// * * * * * * * * * * * * * * * * * * * * * * * * * * * * * * * * * * * * * //

dimensions      [0 1 -1 0 0 0 0];

internalField   nonuniform List<vector> 
400
(
(0.000448429 -0.000443383 0)
(0.000224537 0.000211914 0)
(-0.00216482 0.00101852 0)
(-0.00629936 0.00158179 0)
(-0.0114711 0.00186252 0)
(-0.0169848 0.00189229 0)
(-0.0222263 0.00171535 0)
(-0.0266859 0.00137516 0)
(-0.029962 0.000911043 0)
(-0.0317607 0.000360909 0)
(-0.0319019 -0.000234229 0)
(-0.030334 -0.000826481 0)
(-0.0271523 -0.00135935 0)
(-0.0226174 -0.00176882 0)
(-0.0171641 -0.0019877 0)
(-0.0113936 -0.00195389 0)
(-0.00603518 -0.00162372 0)
(-0.00186981 -0.000991041 0)
(0.000402965 -0.000142711 0)
(0.000494515 0.000483017 0)
(-0.000159288 -0.000271061 0)
(-0.00296697 0.00300631 0)
(-0.0103425 0.00651761 0)
(-0.0211624 0.00901479 0)
(-0.0339964 0.0102555 0)
(-0.0474173 0.0102901 0)
(-0.0600725 0.00927173 0)
(-0.0707859 0.00739052 0)
(-0.0786124 0.00484717 0)
(-0.0828623 0.00185323 0)
(-0.0831271 -0.00135846 0)
(-0.0793111 -0.00452422 0)
(-0.0716662 -0.00734776 0)
(-0.0608186 -0.00951085 0)
(-0.0477713 -0.0106994 0)
(-0.0338642 -0.0106482 0)
(-0.0206616 -0.00920631 0)
(-0.00975604 -0.00642393 0)
(-0.00258182 -0.0027255 0)
(-4.63371e-05 0.000461268 0)
(-0.000982577 0.00204763 0)
(-0.00677677 0.0104255 0)
(-0.0191887 0.0184125 0)
(-0.0360682 0.0240234 0)
(-0.0553501 0.0267206 0)
(-0.0751299 0.0265387 0)
(-0.0935836 0.0237803 0)
(-0.109106 0.0188749 0)
(-0.120398 0.0123133 0)
(-0.126512 0.00463423 0)
(-0.126892 -0.00356542 0)
(-0.12141 -0.0116187 0)
(-0.110417 -0.0187925 0)
(-0.0947643 -0.0243187 0)
(-0.0758115 -0.0274608 0)
(-0.0553662 -0.0276223 0)
(-0.0355305 -0.0244981 0)
(-0.0184516 -0.0182578 0)
(-0.00624623 -0.00981925 0)
(-0.000814392 -0.00158222 0)
(-0.00171254 0.006415 0)
(-0.0103611 0.022161 0)
(-0.0276728 0.0358535 0)
(-0.0502883 0.0451493 0)
(-0.0754484 0.0493552 0)
(-0.100834 0.0485606 0)
(-0.124274 0.0432743 0)
(-0.143872 0.0342281 0)
(-0.158101 0.0222762 0)
(-0.165845 0.00836721 0)
(-0.16644 -0.00644627 0)
(-0.159718 -0.0209952 0)
(-0.14606 -0.0340042 0)
(-0.126432 -0.0441447 0)
(-0.102406 -0.0501481 0)
(-0.0761116 -0.0509853 0)
(-0.0500803 -0.0461114 0)
(-0.0269897 -0.0357447 0)
(-0.00975303 -0.0212016 0)
(-0.00149586 -0.00558446 0)
(-0.00235055 0.0126114 0)
(-0.0136743 0.0379269 0)
(-0.0357058 0.0584466 0)
(-0.0638306 0.0718133 0)
(-0.0945467 0.0774066 0)
(-0.12513 0.0755163 0)
(-0.153122 0.0669522 0)
(-0.176422 0.0528143 0)
(-0.193355 0.0343698 0)
(-0.202696 0.013019 0)
(-0.203693 -0.00969093 0)
(-0.196114 -0.0320458 0)
(-0.180301 -0.0521726 0)
(-0.157239 -0.0681085 0)
(-0.128603 -0.0779526 0)
(-0.096756 -0.0801165 0)
(-0.0646255 -0.0736652 0)
(-0.0354696 -0.0586963 0)
(-0.013133 -0.0367355 0)
(-0.00210553 -0.0113745 0)
(-0.00293927 0.0204919 0)
(-0.0168228 0.0575649 0)
(-0.0434351 0.0860595 0)
(-0.0768987 0.103863 0)
(-0.112943 0.110675 0)
(-0.148442 0.107172 0)
(-0.180699 0.0945958 0)
(-0.207472 0.0744922 0)
(-0.227007 0.0485829 0)
(-0.238015 0.0187352 0)
(-0.239669 -0.0130063 0)
(-0.231643 -0.0443773 0)
(-0.214174 -0.0728842 0)
(-0.188163 -0.095869 0)
(-0.155279 -0.110686 0)
(-0.11804 -0.115017 0)
(-0.0797433 -0.107315 0)
(-0.0442922 -0.0873101 0)
(-0.0166095 -0.056517 0)
(-0.00271149 -0.0189036 0)
(-0.00351866 0.0299932 0)
(-0.0199283 0.0809819 0)
(-0.051045 0.118579 0)
(-0.0896976 0.141141 0)
(-0.130828 0.148948 0)
(-0.170933 0.143289 0)
(-0.20713 0.125992 0)
(-0.237117 0.0991386 0)
(-0.259137 0.0649369 0)
(-0.271893 0.0257104 0)
(-0.274503 -0.0160335 0)
(-0.266518 -0.0575175 0)
(-0.247998 -0.0956405 0)
(-0.219645 -0.12701 0)
(-0.182989 -0.148117 0)
(-0.14058 -0.155697 0)
(-0.0960307 -0.147293 0)
(-0.053928 -0.121935 0)
(-0.0204454 -0.0808423 0)
(-0.00338667 -0.0282761 0)
(-0.00412317 0.0411233 0)
(-0.0231027 0.108159 0)
(-0.0586976 0.155905 0)
(-0.102355 0.183429 0)
(-0.148209 0.1919 0)
(-0.192425 0.183486 0)
(-0.232031 0.160784 0)
(-0.264777 0.126511 0)
(-0.289007 0.0833788 0)
(-0.303499 0.0341276 0)
(-0.307358 -0.018351 0)
(-0.300003 -0.0708552 0)
(-0.281236 -0.119741 0)
(-0.251427 -0.160882 0)
(-0.211786 -0.189797 0)
(-0.164704 -0.202031 0)
(-0.113965 -0.193828 0)
(-0.0648261 -0.163054 0)
(-0.0249077 -0.110226 0)
(-0.00420484 -0.0397505 0)
(-0.00478767 0.053953 0)
(-0.0264567 0.139147 0)
(-0.0665298 0.197925 0)
(-0.1149 0.23039 0)
(-0.164866 0.238991 0)
(-0.212353 0.227107 0)
(-0.254447 0.198328 0)
(-0.289115 0.156108 0)
(-0.314961 0.103665 0)
(-0.330962 0.044079 0)
(-0.336287 -0.0195044 0)
(-0.330234 -0.083611 0)
(-0.312288 -0.144191 0)
(-0.28233 -0.196454 0)
(-0.24101 -0.234885 0)
(-0.190266 -0.253578 0)
(-0.133783 -0.247005 0)
(-0.0773632 -0.211215 0)
(-0.0302638 -0.145384 0)
(-0.00524618 -0.0537382 0)
(-0.00556211 0.0686235 0)
(-0.0301375 0.17406 0)
(-0.0746916 0.244463 0)
(-0.127276 0.281449 0)
(-0.18033 0.289299 0)
(-0.229697 0.273035 0)
(-0.272755 0.237501 0)
(-0.307928 0.186991 0)
(-0.334297 0.125208 0)
(-0.351213 0.0554517 0)
(-0.358034 -0.0190657 0)
(-0.353993 -0.0948283 0)
(-0.338222 -0.167614 0)
(-0.309959 -0.232143 0)
(-0.269002 -0.281902 0)
(-0.216423 -0.309316 0)
(-0.155352 -0.306526 0)
(-0.0918047 -0.26688 0)
(-0.0367982 -0.187188 0)
(-0.00661145 -0.0708108 0)
(-0.00653814 0.0853866 0)
(-0.034394 0.21309 0)
(-0.0834093 0.295206 0)
(-0.139356 0.335641 0)
(-0.19383 0.341317 0)
(-0.242882 0.319461 0)
(-0.28453 0.276472 0)
(-0.317989 0.217576 0)
(-0.343097 0.146898 0)
(-0.359805 0.0677855 0)
(-0.367829 -0.016732 0)
(-0.366447 -0.103408 0)
(-0.354456 -0.188193 0)
(-0.330337 -0.265645 0)
(-0.292729 -0.328449 0)
(-0.241311 -0.367276 0)
(-0.177955 -0.371359 0)
(-0.108243 -0.330179 0)
(-0.0448426 -0.236591 0)
(-0.00844702 -0.0917308 0)
(-0.00789645 0.104703 0)
(-0.0396778 0.256553 0)
(-0.0930501 0.349595 0)
(-0.150902 0.39138 0)
(-0.20415 0.392667 0)
(-0.249559 0.363607 0)
(-0.286308 0.312466 0)
(-0.314828 0.245435 0)
(-0.33604 0.166929 0)
(-0.350743 0.0801174 0)
(-0.35921 -0.0124587 0)
(-0.360925 -0.108201 0)
(-0.354455 -0.203689 0)
(-0.337504 -0.293821 0)
(-0.30731 -0.37093 0)
(-0.261576 -0.424102 0)
(-0.199959 -0.439229 0)
(-0.126468 -0.400524 0)
(-0.0548147 -0.294502 0)
(-0.0109887 -0.117523 0)
(-0.00999089 0.12744 0)
(-0.046782 0.304942 0)
(-0.104127 0.40661 0)
(-0.161353 0.446087 0)
(-0.209237 0.439714 0)
(-0.246145 0.401412 0)
(-0.273147 0.341532 0)
(-0.292381 0.267132 0)
(-0.306161 0.182675 0)
(-0.31634 0.0908564 0)
(-0.323924 -0.0066068 0)
(-0.328797 -0.108169 0)
(-0.329504 -0.211563 0)
(-0.323126 -0.3127 0)
(-0.305446 -0.404321 0)
(-0.271711 -0.474551 0)
(-0.218232 -0.505914 0)
(-0.145678 -0.475962 0)
(-0.0672463 -0.361542 0)
(-0.0146349 -0.149615 0)
(-0.0134884 0.15522 0)
(-0.0569881 0.358892 0)
(-0.117067 0.464276 0)
(-0.169155 0.495544 0)
(-0.205287 0.477034 0)
(-0.226888 0.427201 0)
(-0.23784 0.358418 0)
(-0.24244 0.278227 0)
(-0.244556 0.190727 0)
(-0.247142 0.0977736 0)
(-0.251999 -5.24102e-05 0)
(-0.259574 -0.102606 0)
(-0.268693 -0.209264 0)
(-0.276213 -0.317705 0)
(-0.276788 -0.422162 0)
(-0.263112 -0.511047 0)
(-0.22713 -0.564348 0)
(-0.163818 -0.552142 0)
(-0.0827049 -0.437508 0)
(-0.0200475 -0.190049 0)
(-0.0195375 0.19094 0)
(-0.0720126 0.41879 0)
(-0.131236 0.518597 0)
(-0.170022 0.532876 0)
(-0.184769 0.496797 0)
(-0.182099 0.433535 0)
(-0.169586 0.356751 0)
(-0.153825 0.273627 0)
(-0.140027 0.187248 0)
(-0.131963 0.0982417 0)
(-0.132048 0.00583473 0)
(-0.141332 -0.0913885 0)
(-0.15926 -0.194734 0)
(-0.183135 -0.304292 0)
(-0.207367 -0.417036 0)
(-0.222806 -0.523619 0)
(-0.216758 -0.603692 0)
(-0.176059 -0.620712 0)
(-0.101242 -0.520182 0)
(-0.0281702 -0.241678 0)
(-0.0296686 0.239575 0)
(-0.0928769 0.483376 0)
(-0.141857 0.561333 0)
(-0.152881 0.547014 0)
(-0.132622 0.488306 0)
(-0.095208 0.411589 0)
(-0.0520616 0.32989 0)
(-0.0113765 0.248576 0)
(0.0211842 0.168886 0)
(0.0418188 0.0898896 0)
(0.0480333 0.0094725 0)
(0.0383658 -0.0751659 0)
(0.0124941 -0.167122 0)
(-0.0281734 -0.269106 0)
(-0.0793087 -0.381854 0)
(-0.131865 -0.500653 0)
(-0.170015 -0.608728 0)
(-0.171405 -0.667074 0)
(-0.120276 -0.603005 0)
(-0.0396552 -0.308415 0)
(-0.0442028 0.309924 0)
(-0.115099 0.545705 0)
(-0.131623 0.575093 0)
(-0.0913104 0.520152 0)
(-0.0197327 0.437853 0)
(0.0613111 0.352421 0)
(0.138648 0.27272 0)
(0.204683 0.200444 0)
(0.255102 0.134271 0)
(0.287378 0.0717016 0)
(0.299793 0.00967004 0)
(0.290929 -0.0553735 0)
(0.25957 -0.127558 0)
(0.205106 -0.211589 0)
(0.128777 -0.312061 0)
(0.0362591 -0.430812 0)
(-0.0580041 -0.559881 0)
(-0.125906 -0.667164 0)
(-0.128713 -0.670535 0)
(-0.0521368 -0.396008 0)
(-0.0539759 0.411807 0)
(-0.11283 0.58119 0)
(-0.0507888 0.525734 0)
(0.0721168 0.426934 0)
(0.206102 0.331813 0)
(0.329748 0.251196 0)
(0.434602 0.185539 0)
(0.517603 0.131774 0)
(0.57814 0.0862139 0)
(0.616335 0.0454644 0)
(0.632079 0.0063923 0)
(0.624558 -0.0342322 0)
(0.591999 -0.0802237 0)
(0.531667 -0.136602 0)
(0.44048 -0.210111 0)
(0.317118 -0.308707 0)
(0.166545 -0.437375 0)
(0.00980362 -0.585128 0)
(-0.0927043 -0.686496 0)
(-0.0500476 -0.503515 0)
(0.00767231 0.494971 0)
(0.0216502 0.518122 0)
(0.22709 0.373802 0)
(0.44696 0.258869 0)
(0.625555 0.179295 0)
(0.764432 0.124215 0)
(0.870133 0.0856482 0)
(0.947741 0.0576746 0)
(1.00142 0.0361144 0)
(1.03411 0.0181142 0)
(1.04732 0.00156946 0)
(1.04107 -0.0153949 0)
(1.01372 -0.0350007 0)
(0.96153 -0.060495 0)
(0.878129 -0.0973054 0)
(0.754328 -0.154671 0)
(0.577515 -0.246983 0)
(0.337491 -0.390912 0)
(0.0906673 -0.571398 0)
(0.0412015 -0.553291 0)
(0.533055 0.260446 0)
(0.699832 0.228509 0)
(0.983898 0.138576 0)
(1.19446 0.0814562 0)
(1.32208 0.0488067 0)
(1.4033 0.0297337 0)
(1.45768 0.0183208 0)
(1.49402 0.011182 0)
(1.51729 0.00635017 0)
(1.53035 0.00270242 0)
(1.53467 -0.000445299 0)
(1.53055 -0.00359609 0)
(1.51722 -0.00734036 0)
(1.49245 -0.0125971 0)
(1.45159 -0.0211674 0)
(1.38548 -0.0368204 0)
(1.27328 -0.0673592 0)
(1.0689 -0.127522 0)
(0.762694 -0.229488 0)
(0.562833 -0.271201 0)
)
;

boundaryField
{
    movingWall
    {
        type            fixedValue;
        value           uniform (1.8 0 0);
    }
    fixedWalls
    {
        type            noSlip;
    }
    frontAndBack
    {
        type            empty;
    }
}


// ************************************************************************* //
