/*--------------------------------*- C++ -*----------------------------------*\
  =========                 |
  \\      /  F ield         | OpenFOAM: The Open Source CFD Toolbox
   \\    /   O peration     | Website:  https://openfoam.org
    \\  /    A nd           | Version:  8
     \\/     M anipulation  |
\*---------------------------------------------------------------------------*/
FoamFile
{
    version     2.0;
    format      ascii;
    class       surfaceScalarField;
    location    "0.2";
    object      phi;
}
// * * * * * * * * * * * * * * * * * * * * * * * * * * * * * * * * * * * * * //

dimensions      [0 3 -1 0 0 0 0];

internalField   nonuniform List<scalar> 
760
(
4.43897e-08
-4.46022e-08
-8.53256e-08
1.29716e-07
-3.98418e-07
3.13099e-07
-8.36636e-07
4.38216e-07
-1.33586e-06
4.99225e-07
-1.83835e-06
5.02484e-07
-2.29488e-06
4.56535e-07
-2.66446e-06
3.69576e-07
-2.91365e-06
2.49189e-07
-3.01713e-06
1.0348e-07
-2.9597e-06
-5.74306e-08
-2.73938e-06
-2.20318e-07
-2.37072e-06
-3.68658e-07
-1.88716e-06
-4.83556e-07
-1.3412e-06
-5.45962e-07
-8.01116e-07
-5.40082e-07
-3.43374e-07
-4.57741e-07
-4.02701e-08
-3.03103e-07
6.13488e-08
-1.0162e-07
6.1347e-08
-1.26116e-07
8.15014e-08
-6.34424e-07
6.3803e-07
-1.49674e-06
1.17542e-06
-2.60606e-06
1.54754e-06
-3.83416e-06
1.72733e-06
-5.05535e-06
1.72367e-06
-6.15633e-06
1.55752e-06
-7.04012e-06
1.25337e-06
-7.62809e-06
8.37152e-07
-7.86283e-06
3.38227e-07
-7.71287e-06
-2.07391e-07
-7.17846e-06
-7.54731e-07
-6.29723e-06
-1.24989e-06
-5.14741e-06
-1.63338e-06
-3.8462e-06
-1.84717e-06
-2.54097e-06
-1.84531e-06
-1.39145e-06
-1.60726e-06
-5.42362e-07
-1.15219e-06
-8.57419e-08
-5.58236e-07
-2.43955e-08
-3.28934e-07
4.10439e-07
-1.24475e-06
1.55385e-06
-2.62937e-06
2.56004e-06
-4.32305e-06
3.24121e-06
-6.15121e-06
3.55549e-06
-7.94388e-06
3.51634e-06
-9.54648e-06
3.16012e-06
-1.08256e-05
2.53247e-06
-1.1673e-05
1.68453e-06
-1.20102e-05
6.75522e-07
-1.17952e-05
-4.22436e-07
-1.10289e-05
-1.52099e-06
-9.76275e-06
-2.51607e-06
-8.10193e-06
-3.2942e-06
-6.20362e-06
-3.74548e-06
-4.26579e-06
-3.78314e-06
-2.50511e-06
-3.36794e-06
-1.12413e-06
-2.53318e-06
-2.70846e-07
-1.41151e-06
-2.95242e-07
-5.13909e-07
9.24355e-07
-1.82281e-06
2.86274e-06
-3.70555e-06
4.44279e-06
-5.9383e-06
5.47396e-06
-8.30188e-06
5.91907e-06
-1.05918e-05
5.80628e-06
-1.26251e-05
5.19338e-06
-1.42443e-05
4.15167e-06
-1.53215e-05
2.76172e-06
-1.57631e-05
1.11715e-06
-1.55168e-05
-6.68739e-07
-1.45797e-05
-2.45811e-06
-1.30067e-05
-4.0891e-06
-1.09163e-05
-5.38458e-06
-8.49085e-06
-6.17091e-06
-5.96692e-06
-6.30706e-06
-3.61346e-06
-5.7214e-06
-1.6976e-06
-4.44903e-06
-4.43782e-07
-2.66533e-06
-7.39024e-07
-6.80021e-07
1.60438e-06
-2.3578e-06
4.54052e-06
-4.71194e-06
6.79693e-06
-7.45059e-06
8.21261e-06
-1.031e-05
8.77846e-06
-1.3056e-05
8.5523e-06
-1.54848e-05
7.62219e-06
-1.74231e-05
6.08991e-06
-1.87292e-05
4.06785e-06
-1.92971e-05
1.68501e-06
-1.90623e-05
-9.03482e-07
-1.80115e-05
-3.50889e-06
-1.61928e-05
-5.90779e-06
-1.37258e-05
-7.85158e-06
-1.08071e-05
-9.08966e-06
-7.70616e-06
-9.40796e-06
-4.74744e-06
-8.68012e-06
-2.27562e-06
-6.92085e-06
-6.09981e-07
-4.33097e-06
-1.349e-06
-8.32084e-07
2.43646e-06
-2.85514e-06
6.56358e-06
-5.6536e-06
9.59539e-06
-8.86814e-06
1.14272e-05
-1.21919e-05
1.21022e-05
-1.53651e-05
1.17255e-05
-1.81691e-05
1.04262e-05
-2.04209e-05
8.34171e-06
-2.197e-05
5.61689e-06
-2.2699e-05
2.41402e-06
-2.25289e-05
-1.07356e-06
-2.14284e-05
-4.60933e-06
-1.94278e-05
-7.90845e-06
-1.66345e-05
-1.06449e-05
-1.32477e-05
-1.24765e-05
-9.56423e-06
-1.30914e-05
-5.96805e-06
-1.22763e-05
-2.89658e-06
-9.99232e-06
-7.85352e-07
-6.4422e-06
-2.13436e-06
-9.74395e-07
3.41085e-06
-3.32181e-06
8.911e-06
-6.53653e-06
1.28101e-05
-1.01937e-05
1.50843e-05
-1.39463e-05
1.58548e-05
-1.75142e-05
1.52934e-05
-2.06707e-05
1.35827e-05
-2.32297e-05
1.09007e-05
-2.50372e-05
7.42438e-06
-2.59672e-05
3.34398e-06
-2.59239e-05
-1.11681e-06
-2.48513e-05
-5.68195e-06
-2.27494e-05
-1.00103e-05
-1.96979e-05
-1.36964e-05
-1.58824e-05
-1.6292e-05
-1.16159e-05
-1.7358e-05
-7.34171e-06
-1.65504e-05
-3.60565e-06
-1.37284e-05
-9.87791e-07
-9.06006e-06
-3.12215e-06
-1.11016e-06
4.52102e-06
-3.76315e-06
1.1564e-05
-7.36259e-06
1.64095e-05
-1.14191e-05
1.91409e-05
-1.55498e-05
1.99855e-05
-1.94615e-05
1.92051e-05
-2.29283e-05
1.70495e-05
-2.57706e-05
1.3743e-05
-2.78388e-05
9.49259e-06
-2.90034e-05
4.5086e-06
-2.9153e-05
-9.67242e-07
-2.82014e-05
-6.63352e-06
-2.61065e-05
-1.21053e-05
-2.29008e-05
-1.69021e-05
-1.87329e-05
-2.04599e-05
-1.39102e-05
-2.21807e-05
-8.92634e-06
-2.15343e-05
-4.44758e-06
-1.82071e-05
-1.23566e-06
-1.2272e-05
-4.35781e-06
-1.24247e-06
5.76349e-06
-4.18412e-06
1.45056e-05
-8.13032e-06
2.03557e-05
-1.25255e-05
2.35361e-05
-1.69563e-05
2.44163e-05
-2.11268e-05
2.33756e-05
-2.48247e-05
2.07474e-05
-2.78901e-05
1.68085e-05
-3.01902e-05
1.17927e-05
-3.1602e-05
5.92035e-06
-3.20037e-05
-5.65459e-07
-3.12786e-05
-7.3587e-06
-2.93317e-05
-1.40521e-05
-2.61273e-05
-2.01066e-05
-2.17445e-05
-2.48426e-05
-1.64494e-05
-2.74758e-05
-1.07591e-05
-2.72246e-05
-5.46265e-06
-2.35036e-05
-1.54783e-06
-1.61868e-05
-5.90564e-06
-1.37687e-06
7.14036e-06
-4.59443e-06
1.77232e-05
-8.84056e-06
2.46019e-05
-1.34878e-05
2.81833e-05
-1.80999e-05
2.90284e-05
-2.23928e-05
2.76685e-05
-2.6186e-05
2.45406e-05
-2.93577e-05
1.99801e-05
-3.18092e-05
1.42443e-05
-3.34398e-05
7.55087e-06
-3.41298e-05
1.24601e-07
-3.37376e-05
-7.75096e-06
-3.21112e-05
-1.56785e-05
-2.91258e-05
-2.3092e-05
-2.47525e-05
-2.92159e-05
-1.91616e-05
-3.30668e-05
-1.28412e-05
-3.35449e-05
-6.68305e-06
-2.96617e-05
-1.94491e-06
-2.09249e-05
-7.85054e-06
-1.52594e-06
8.66629e-06
-5.01712e-06
2.12144e-05
-9.50524e-06
2.909e-05
-1.42812e-05
3.29593e-05
-1.88979e-05
3.36451e-05
-2.31061e-05
3.18767e-05
-2.67815e-05
2.82159e-05
-2.98643e-05
2.30629e-05
-3.23131e-05
1.66931e-05
-3.40706e-05
9.30839e-06
-3.50395e-05
1.09352e-06
-3.50686e-05
-7.72188e-06
-3.39545e-05
-1.67926e-05
-3.14705e-05
-2.55759e-05
-2.74394e-05
-3.3247e-05
-2.18643e-05
-3.86419e-05
-1.51164e-05
-4.02928e-05
-8.1273e-06
-3.66509e-05
-2.45127e-06
-2.6601e-05
-1.03018e-05
-1.71664e-06
1.03829e-05
-5.50022e-06
2.49979e-05
-1.01563e-05
3.3746e-05
-1.48832e-05
3.76862e-05
-1.9248e-05
3.80099e-05
-2.30707e-05
3.56994e-05
-2.63172e-05
3.14624e-05
-2.90192e-05
2.57649e-05
-3.12186e-05
1.88925e-05
-3.29272e-05
1.1017e-05
-3.40959e-05
2.26218e-06
-3.45899e-05
-7.22782e-06
-3.4175e-05
-1.72076e-05
-3.25263e-05
-2.72246e-05
-2.92876e-05
-3.64857e-05
-2.42153e-05
-4.37142e-05
-1.74355e-05
-4.70725e-05
-9.78881e-06
-4.42976e-05
-3.09816e-06
-3.32916e-05
-1.34e-05
-2.00238e-06
1.23853e-05
-6.13007e-06
2.91256e-05
-1.08469e-05
3.84628e-05
-1.52608e-05
4.21001e-05
-1.90038e-05
4.17529e-05
-2.20212e-05
3.87169e-05
-2.44136e-05
3.38548e-05
-2.63366e-05
2.7688e-05
-2.79406e-05
2.04965e-05
-2.933e-05
1.24064e-05
-3.05315e-05
3.46358e-06
-3.14606e-05
-6.29867e-06
-3.18897e-05
-1.67785e-05
-3.14257e-05
-2.76886e-05
-2.9532e-05
-3.83794e-05
-2.56502e-05
-4.7596e-05
-1.95019e-05
-5.32208e-05
-1.16122e-05
-5.21873e-05
-3.92736e-06
-4.09764e-05
-1.73273e-05
-2.48166e-06
1.4867e-05
-7.03853e-06
3.36825e-05
-1.16254e-05
4.30497e-05
-1.53122e-05
4.57868e-05
-1.79008e-05
4.43416e-05
-1.95478e-05
4.03638e-05
-2.05422e-05
3.48492e-05
-2.11929e-05
2.83387e-05
-2.17736e-05
2.10771e-05
-2.24937e-05
1.31266e-05
-2.34745e-05
4.44436e-06
-2.47157e-05
-5.05747e-06
-2.60477e-05
-1.54465e-05
-2.70724e-05
-2.66638e-05
-2.71218e-05
-3.83301e-05
-2.5305e-05
-4.94128e-05
-2.07838e-05
-5.77421e-05
-1.34413e-05
-5.95298e-05
-4.99068e-06
-4.9427e-05
-2.2318e-05
-3.32082e-06
1.81878e-05
-8.37543e-06
3.87371e-05
-1.24276e-05
4.71019e-05
-1.47032e-05
4.80624e-05
-1.53739e-05
4.50123e-05
-1.49254e-05
3.99153e-05
-1.38865e-05
3.38103e-05
-1.27284e-05
2.71806e-05
-1.18381e-05
2.01868e-05
-1.15167e-05
1.28052e-05
-1.19769e-05
4.90457e-06
-1.33215e-05
-3.7129e-06
-1.54921e-05
-1.32759e-05
-1.81792e-05
-2.39767e-05
-2.07022e-05
-3.5807e-05
-2.19229e-05
-4.8192e-05
-2.03695e-05
-5.92955e-05
-1.48997e-05
-6.49996e-05
-6.32349e-06
-5.80033e-05
-2.86415e-05
-4.7462e-06
2.2934e-05
-1.0143e-05
4.4134e-05
-1.27509e-05
4.97098e-05
-1.24723e-05
4.77839e-05
-1.01742e-05
4.27142e-05
-6.78962e-06
3.65307e-05
-3.09305e-06
3.01137e-05
3.24842e-07
2.37627e-05
3.02168e-06
1.749e-05
4.65808e-06
1.11688e-05
4.96924e-06
4.59342e-06
3.76157e-06
-2.50523e-06
9.49083e-07
-1.04634e-05
-3.34987e-06
-1.96777e-05
-8.63059e-06
-3.05263e-05
-1.37462e-05
-4.30764e-05
-1.67267e-05
-5.6315e-05
-1.51168e-05
-6.66095e-05
-7.81984e-06
-6.53002e-05
-3.64613e-05
-6.8752e-06
2.98092e-05
-1.15803e-05
4.8839e-05
-1.07926e-05
4.89221e-05
-6.18419e-06
4.31755e-05
3.23899e-07
3.62062e-05
7.37023e-06
2.94844e-05
1.40675e-05
2.34165e-05
1.98512e-05
1.79789e-05
2.43486e-05
1.29926e-05
2.72832e-05
8.23422e-06
2.84152e-05
3.46133e-06
2.75126e-05
-1.60257e-06
2.43559e-05
-7.30673e-06
1.88025e-05
-1.41244e-05
1.09681e-05
-2.26919e-05
1.60377e-06
-3.37121e-05
-7.32309e-06
-4.73881e-05
-1.21837e-05
-6.17488e-05
-8.87573e-06
-6.86082e-05
-4.53371e-05
-8.98074e-06
3.87899e-05
-9.25814e-06
4.91164e-05
-1.42626e-06
4.10902e-05
9.62842e-06
3.21208e-05
2.11209e-05
2.47137e-05
3.17548e-05
1.88505e-05
4.09368e-05
1.42345e-05
4.84041e-05
1.05117e-05
5.40323e-05
7.36435e-06
5.77279e-05
4.53867e-06
5.93668e-05
1.82243e-06
5.87572e-05
-9.92958e-07
5.56118e-05
-4.1613e-06
4.95452e-05
-8.05783e-06
4.01514e-05
-1.32981e-05
2.73132e-05
-2.0874e-05
1.20224e-05
-3.20973e-05
-2.09012e-06
-4.76363e-05
-7.59535e-06
-6.3103e-05
-5.29324e-05
-4.95279e-06
4.37427e-05
8.85392e-06
3.53097e-05
2.78814e-05
2.20627e-05
4.54484e-05
1.45538e-05
6.01845e-05
9.97761e-06
7.20942e-05
6.94074e-06
8.14647e-05
4.86395e-06
8.85986e-05
3.37779e-06
9.37282e-05
2.23471e-06
9.69894e-05
1.27752e-06
9.84108e-05
4.01055e-07
9.79032e-05
-4.8538e-07
9.52169e-05
-1.47504e-06
8.9883e-05
-2.72394e-06
8.11106e-05
-4.52559e-06
6.77437e-05
-7.50706e-06
4.86544e-05
-1.3008e-05
2.4499e-05
-2.34809e-05
2.51409e-06
-4.11181e-05
-5.04183e-05
4.37427e-05
7.90524e-05
0.000101115
0.000115669
0.000125647
0.000132587
0.000137451
0.000140829
0.000143064
0.000144341
0.000144742
0.000144257
0.000142782
0.000140058
0.000135532
0.000128025
0.000115017
9.15364e-05
5.04183e-05
)
;

boundaryField
{
    movingWall
    {
        type            calculated;
        value           uniform 0;
    }
    fixedWalls
    {
        type            calculated;
        value           uniform 0;
    }
    frontAndBack
    {
        type            empty;
        value           nonuniform List<scalar> 0();
    }
}


// ************************************************************************* //
