/*--------------------------------*- C++ -*----------------------------------*\
  =========                 |
  \\      /  F ield         | OpenFOAM: The Open Source CFD Toolbox
   \\    /   O peration     | Website:  https://openfoam.org
    \\  /    A nd           | Version:  8
     \\/     M anipulation  |
\*---------------------------------------------------------------------------*/
FoamFile
{
    version     2.0;
    format      ascii;
    class       volVectorField;
    location    "0.2";
    object      U;
}
// * * * * * * * * * * * * * * * * * * * * * * * * * * * * * * * * * * * * * //

dimensions      [0 1 -1 0 0 0 0];

internalField   nonuniform List<vector> 
400
(
(0.000821024 -0.000819479 0)
(0.000331527 0.000430171 0)
(-0.00422234 0.00192374 0)
(-0.0119767 0.00294469 0)
(-0.0216005 0.00344984 0)
(-0.0318461 0.00351412 0)
(-0.0416339 0.00321901 0)
(-0.0500585 0.00263138 0)
(-0.0563731 0.00180424 0)
(-0.0599841 0.000789679 0)
(-0.0604763 -0.000345781 0)
(-0.0576658 -0.00150991 0)
(-0.0516689 -0.00258086 0)
(-0.0429624 -0.00341325 0)
(-0.0324141 -0.00385463 0)
(-0.0212567 -0.00377201 0)
(-0.0109813 -0.00308701 0)
(-0.0031372 -0.00181729 0)
(0.000981986 -0.000178059 0)
(0.000988102 0.0009599 0)
(-0.000364981 -0.000415725 0)
(-0.00581513 0.00580866 0)
(-0.0198329 0.0123117 0)
(-0.0401749 0.0168549 0)
(-0.0641623 0.0190991 0)
(-0.0892231 0.0191983 0)
(-0.112947 0.0174329 0)
(-0.133213 0.014099 0)
(-0.148253 0.00948888 0)
(-0.156687 0.00392326 0)
(-0.157604 -0.00220067 0)
(-0.150667 -0.00837474 0)
(-0.136234 -0.0139756 0)
(-0.115462 -0.0183021 0)
(-0.0903294 -0.0206585 0)
(-0.0635444 -0.0204819 0)
(-0.0382707 -0.0175054 0)
(-0.0176647 -0.0119389 0)
(-0.00440777 -0.00477762 0)
(4.48065e-05 0.00110115 0)
(-0.00196006 0.00412562 0)
(-0.0131258 0.0200013 0)
(-0.0366877 0.0347861 0)
(-0.0684368 0.0450056 0)
(-0.104525 0.049892 0)
(-0.141529 0.0496305 0)
(-0.17619 0.0447667 0)
(-0.205599 0.0359738 0)
(-0.227316 0.0239909 0)
(-0.239452 0.0096671 0)
(-0.240769 -0.00595943 0)
(-0.230824 -0.0216054 0)
(-0.210117 -0.0357489 0)
(-0.180209 -0.0467242 0)
(-0.143757 -0.0529188 0)
(-0.104391 -0.0530683 0)
(-0.0663609 -0.046625 0)
(-0.033953 -0.0341447 0)
(-0.0111849 -0.0177638 0)
(-0.00134962 -0.00243651 0)
(-0.00338005 0.0126133 0)
(-0.0199888 0.0423995 0)
(-0.0527724 0.0677109 0)
(-0.0952376 0.0846284 0)
(-0.142285 0.0922496 0)
(-0.189778 0.0909238 0)
(-0.233858 0.0815526 0)
(-0.271089 0.0652801 0)
(-0.298595 0.0434055 0)
(-0.314135 0.0174424 0)
(-0.316216 -0.0107711 0)
(-0.304247 -0.0389936 0)
(-0.278717 -0.0645961 0)
(-0.241345 -0.0847177 0)
(-0.195162 -0.0965857 0)
(-0.144436 -0.0980004 0)
(-0.0943133 -0.0879405 0)
(-0.0502081 -0.0671724 0)
(-0.0177587 -0.0388443 0)
(-0.00259354 -0.00959289 0)
(-0.00461383 0.0246098 0)
(-0.0262521 0.0723841 0)
(-0.0677698 0.110229 0)
(-0.120356 0.13452 0)
(-0.177617 0.144676 0)
(-0.234757 0.141476 0)
(-0.287448 0.126327 0)
(-0.331902 0.100936 0)
(-0.364953 0.0672211 0)
(-0.384103 0.0274116 0)
(-0.387613 -0.0158033 0)
(-0.374663 -0.0591562 0)
(-0.34555 -0.0988066 0)
(-0.301916 -0.130534 0)
(-0.246918 -0.150167 0)
(-0.185277 -0.15426 0)
(-0.122995 -0.140964 0)
(-0.0667806 -0.110906 0)
(-0.0242463 -0.0679334 0)
(-0.0037221 -0.0201035 0)
(-0.00572125 0.0397777 0)
(-0.0320274 0.109495 0)
(-0.0817702 0.161886 0)
(-0.143899 0.1942 0)
(-0.210743 0.20666 0)
(-0.276897 0.200805 0)
(-0.337676 0.178748 0)
(-0.389063 0.142854 0)
(-0.427726 0.0956948 0)
(-0.450976 0.0402 0)
(-0.456821 -0.0201207 0)
(-0.444104 -0.0809905 0)
(-0.412748 -0.137319 0)
(-0.364055 -0.183386 0)
(-0.301047 -0.213338 0)
(-0.228698 -0.222054 0)
(-0.153837 -0.206316 0)
(-0.0846596 -0.166072 0)
(-0.0311732 -0.105479 0)
(-0.00488474 -0.0339723 0)
(-0.00675314 0.0578795 0)
(-0.0374426 0.153297 0)
(-0.0949146 0.222165 0)
(-0.165959 0.263103 0)
(-0.241679 0.277629 0)
(-0.316137 0.268411 0)
(-0.384413 0.238499 0)
(-0.442411 0.191022 0)
(-0.486756 0.129204 0)
(-0.514658 0.0566016 0)
(-0.523876 -0.0225687 0)
(-0.512835 -0.10313 0)
(-0.480885 -0.178787 0)
(-0.428704 -0.242226 0)
(-0.358831 -0.28561 0)
(-0.276199 -0.301589 0)
(-0.188315 -0.284828 0)
(-0.105002 -0.233805 0)
(-0.039168 -0.152434 0)
(-0.0062491 -0.0515552 0)
(-0.00774748 0.0787528 0)
(-0.0426017 0.203396 0)
(-0.107304 0.29048 0)
(-0.186502 0.340491 0)
(-0.270127 0.356764 0)
(-0.351831 0.343518 0)
(-0.426627 0.305001 0)
(-0.490529 0.24521 0)
(-0.540306 0.167993 0)
(-0.573201 0.0774028 0)
(-0.586798 -0.0218384 0)
(-0.579065 -0.123874 0)
(-0.548609 -0.221366 0)
(-0.495164 -0.305417 0)
(-0.420345 -0.36594 0)
(-0.32855 -0.392722 0)
(-0.2276 -0.377321 0)
(-0.128918 -0.315591 0)
(-0.0488855 -0.210299 0)
(-0.00799249 -0.0735769 0)
(-0.00874184 0.102294 0)
(-0.047612 0.259431 0)
(-0.119019 0.366149 0)
(-0.205374 0.425356 0)
(-0.295478 0.442833 0)
(-0.382742 0.42484 0)
(-0.46235 0.377123 0)
(-0.5307 0.304661 0)
(-0.584964 0.211879 0)
(-0.62265 0.103137 0)
(-0.641328 -0.0166248 0)
(-0.638572 -0.141218 0)
(-0.612146 -0.262592 0)
(-0.560528 -0.370449 0)
(-0.483862 -0.452323 0)
(-0.385285 -0.494512 0)
(-0.272215 -0.484238 0)
(-0.157323 -0.413069 0)
(-0.0609891 -0.281078 0)
(-0.0103142 -0.101138 0)
(-0.00980264 0.128473 0)
(-0.0526677 0.321094 0)
(-0.130242 0.448337 0)
(-0.222414 0.516271 0)
(-0.316887 0.533936 0)
(-0.407075 0.510247 0)
(-0.488687 0.452806 0)
(-0.558871 0.367702 0)
(-0.615566 0.259866 0)
(-0.656883 0.133739 0)
(-0.680672 -0.00589268 0)
(-0.684308 -0.152989 0)
(-0.66475 -0.299322 0)
(-0.618994 -0.433651 0)
(-0.545125 -0.541286 0)
(-0.444053 -0.60457 0)
(-0.321601 -0.605018 0)
(-0.190764 -0.527609 0)
(-0.0761629 -0.367141 0)
(-0.0134645 -0.135735 0)
(-0.0110775 0.157426 0)
(-0.0581952 0.388203 0)
(-0.141433 0.53601 0)
(-0.237605 0.611196 0)
(-0.333358 0.627207 0)
(-0.422516 0.596403 0)
(-0.50181 0.528662 0)
(-0.569632 0.431312 0)
(-0.625158 0.309708 0)
(-0.667547 0.168114 0)
(-0.695345 0.0107338 0)
(-0.706103 -0.157139 0)
(-0.696219 -0.32785 0)
(-0.661177 -0.490026 0)
(-0.596509 -0.627373 0)
(-0.499778 -0.718252 0)
(-0.373491 -0.737186 0)
(-0.229159 -0.659624 0)
(-0.0951301 -0.470969 0)
(-0.0177939 -0.179315 0)
(-0.0128864 0.189658 0)
(-0.0650732 0.460888 0)
(-0.153567 0.627893 0)
(-0.251194 0.707223 0)
(-0.343737 0.718435 0)
(-0.426121 0.678343 0)
(-0.496826 0.599545 0)
(-0.556125 0.490705 0)
(-0.604976 0.357482 0)
(-0.644087 0.203683 0)
(-0.673217 0.0324943 0)
(-0.690625 -0.152196 0)
(-0.692645 -0.344236 0)
(-0.673557 -0.533313 0)
(-0.626162 -0.702777 0)
(-0.543635 -0.827778 0)
(-0.423002 -0.875144 0)
(-0.271319 -0.807494 0)
(-0.118648 -0.594716 0)
(-0.0238329 -0.234395 0)
(-0.0158842 0.226453 0)
(-0.0749483 0.539838 0)
(-0.168306 0.722299 0)
(-0.263566 0.800133 0)
(-0.346299 0.801543 0)
(-0.41377 0.748994 0)
(-0.467253 0.658167 0)
(-0.509659 0.539014 0)
(-0.54428 0.397282 0)
(-0.573832 0.236032 0)
(-0.599777 0.0570316 0)
(-0.621691 -0.137841 0)
(-0.636589 -0.344913 0)
(-0.638297 -0.55641 0)
(-0.617303 -0.757293 0)
(-0.561869 -0.921451 0)
(-0.461327 -1.00867 0)
(-0.314084 -0.965922 0)
(-0.1474 -0.73938 0)
(-0.0324105 -0.304267 0)
(-0.021336 0.270597 0)
(-0.090618 0.626531 0)
(-0.187844 0.816585 0)
(-0.274352 0.883518 0)
(-0.337354 0.86778 0)
(-0.378599 0.798632 0)
(-0.403578 0.694832 0)
(-0.418624 0.567233 0)
(-0.429743 0.421254 0)
(-0.44189 0.258873 0)
(-0.458498 0.0801486 0)
(-0.480956 -0.115452 0)
(-0.507812 -0.327513 0)
(-0.533646 -0.552307 0)
(-0.547921 -0.778919 0)
(-0.534591 -0.983366 0)
(-0.473895 -1.12137 0)
(-0.350729 -1.12355 0)
(-0.181533 -0.903195 0)
(-0.0447678 -0.393217 0)
(-0.0314965 0.327526 0)
(-0.116192 0.722983 0)
(-0.213552 0.905667 0)
(-0.279572 0.947142 0)
(-0.307621 0.90457 0)
(-0.307359 0.814402 0)
(-0.290104 0.69756 0)
(-0.266083 0.564746 0)
(-0.243925 0.420285 0)
(-0.230519 0.264664 0)
(-0.231047 0.0961167 0)
(-0.248811 -0.0883342 0)
(-0.284563 -0.29179 0)
(-0.335103 -0.515596 0)
(-0.39113 -0.755499 0)
(-0.434709 -0.994263 0)
(-0.437788 -1.18964 0)
(-0.367914 -1.25992 0)
(-0.219021 -1.07859 0)
(-0.06236 -0.506459 0)
(-0.0496668 0.407162 0)
(-0.15562 0.829882 0)
(-0.240851 0.978375 0)
(-0.263996 0.97402 0)
(-0.23414 0.894141 0)
(-0.173204 0.78038 0)
(-0.0991827 0.653153 0)
(-0.0255929 0.520962 0)
(0.0374346 0.385834 0)
(0.0822485 0.246326 0)
(0.102899 0.0989541 0)
(0.0947519 -0.0612067 0)
(0.0547486 -0.240192 0)
(-0.017381 -0.444333 0)
(-0.116465 -0.67756 0)
(-0.227236 -0.934177 0)
(-0.318135 -1.1832 0)
(-0.339921 -1.34219 0)
(-0.250875 -1.24734 0)
(-0.085191 -0.650013 0)
(-0.0779445 0.527713 0)
(-0.204832 0.939803 0)
(-0.243442 1.00799 0)
(-0.183079 0.934391 0)
(-0.064504 0.81165 0)
(0.0762815 0.678571 0)
(0.217062 0.549728 0)
(0.344072 0.428434 0)
(0.448443 0.313108 0)
(0.524018 0.200141 0)
(0.565847 0.0848289 0)
(0.569293 -0.0386292 0)
(0.52974 -0.177612 0)
(0.4431 -0.341639 0)
(0.307914 -0.541929 0)
(0.130778 -0.78697 0)
(-0.0633282 -1.06749 0)
(-0.218807 -1.32179 0)
(-0.250189 -1.37248 0)
(-0.105655 -0.830956 0)
(-0.103508 0.713664 0)
(-0.222378 1.01519 0)
(-0.131421 0.934317 0)
(0.0739965 0.779747 0)
(0.308408 0.627564 0)
(0.533736 0.494902 0)
(0.733846 0.383362 0)
(0.901327 0.28887 0)
(1.03287 0.206028 0)
(1.12666 0.129699 0)
(1.18074 0.0550437 0)
(1.19213 -0.023067 0)
(1.15613 -0.111033 0)
(1.06593 -0.218073 0)
(0.912997 -0.358149 0)
(0.690383 -0.550713 0)
(0.401902 -0.813835 0)
(0.0823288 -1.13428 0)
(-0.149165 -1.37699 0)
(-0.0886098 -1.03529 0)
(-0.00948135 0.891371 0)
(-0.00642198 0.930348 0)
(0.34843 0.679525 0)
(0.739856 0.485315 0)
(1.06841 0.349868 0)
(1.33403 0.253287 0)
(1.54568 0.183275 0)
(1.70984 0.130735 0)
(1.83183 0.0889376 0)
(1.91541 0.0531718 0)
(1.96235 0.0199681 0)
(1.97214 -0.0137192 0)
(1.94157 -0.0514627 0)
(1.86375 -0.0986705 0)
(1.72652 -0.165146 0)
(1.51084 -0.269661 0)
(1.18876 -0.445648 0)
(0.731025 -0.735573 0)
(0.235854 -1.11095 0)
(0.109936 -1.09398 0)
(0.984827 0.482748 0)
(1.27442 0.4264 0)
(1.78702 0.265473 0)
(2.1802 0.162334 0)
(2.4281 0.101801 0)
(2.59234 0.0649441 0)
(2.70729 0.0419108 0)
(2.78813 0.0269414 0)
(2.84332 0.0164889 0)
(2.8779 0.00844122 0)
(2.8945 0.00151081 0)
(2.89379 -0.00520794 0)
(2.87472 -0.012665 0)
(2.83384 -0.0222477 0)
(2.76355 -0.0367749 0)
(2.64794 -0.062761 0)
(2.44994 -0.115534 0)
(2.07847 -0.22691 0)
(1.49236 -0.427601 0)
(1.08994 -0.518791 0)
)
;

boundaryField
{
    movingWall
    {
        type            fixedValue;
        value           uniform (3.4 0 0);
    }
    fixedWalls
    {
        type            noSlip;
    }
    frontAndBack
    {
        type            empty;
    }
}


// ************************************************************************* //
