/*--------------------------------*- C++ -*----------------------------------*\
  =========                 |
  \\      /  F ield         | OpenFOAM: The Open Source CFD Toolbox
   \\    /   O peration     | Website:  https://openfoam.org
    \\  /    A nd           | Version:  8
     \\/     M anipulation  |
\*---------------------------------------------------------------------------*/
FoamFile
{
    version     2.0;
    format      ascii;
    class       volScalarField;
    location    "0.4";
    object      p;
}
// * * * * * * * * * * * * * * * * * * * * * * * * * * * * * * * * * * * * * //

dimensions      [0 2 -2 0 0 0 0];

internalField   nonuniform List<scalar> 
400
(
1.42358e-06
-0.0128331
-0.0283127
-0.0400163
-0.0443348
-0.0397034
-0.0259852
-0.00402042
0.0246542
0.0579511
0.0933287
0.12791
0.158672
0.182743
0.197789
0.202492
0.197068
0.183757
0.167188
0.154441
0.012733
-0.000508587
-0.0126073
-0.0205878
-0.0228286
-0.0182539
-0.00669078
0.0112869
0.0345452
0.061484
0.09011
0.118144
0.14319
0.162987
0.175727
0.18042
0.177278
0.167912
0.154871
0.141848
0.0291184
0.0108217
-0.0021886
-0.00943718
-0.0112225
-0.00703806
0.00313726
0.0187857
0.0389844
0.062432
0.0874715
0.112159
0.134403
0.15218
0.16381
0.168273
0.165565
0.156716
0.142489
0.124358
0.0434226
0.0183028
0.0022632
-0.00592601
-0.00818518
-0.00451961
0.0048836
0.019461
0.0383833
0.060518
0.0843904
0.108204
0.129943
0.147559
0.159225
0.163653
0.160492
0.150278
0.132383
0.107003
0.0516998
0.0195629
-4.05577e-05
-0.00965854
-0.0126071
-0.00932282
-0.000182878
0.0141884
0.0330182
0.0552891
0.0796364
0.104317
0.127267
0.146265
0.15917
0.164263
0.160747
0.14868
0.126262
0.0928869
0.0509664
0.0119571
-0.0112718
-0.0223673
-0.0258867
-0.0226324
-0.0131398
0.00191634
0.0218131
0.0456267
0.0720663
0.0993852
0.12539
0.147564
0.163301
0.170285
0.167129
0.153355
0.126043
0.0840467
0.0386632
-0.00704917
-0.033748
-0.0460887
-0.0498101
-0.0460508
-0.0354793
-0.0187989
0.00333434
0.0301025
0.0602917
0.0921373
0.123269
0.150786
0.171463
0.182185
0.180763
0.166003
0.133709
0.0822446
0.0122838
-0.0400153
-0.0698677
-0.0829642
-0.0862748
-0.0812941
-0.0688166
-0.0495464
-0.02403
0.00707093
0.0426718
0.0810303
0.119608
0.155062
0.183411
0.200495
0.203011
0.188706
0.151674
0.0896274
-0.0308762
-0.0897357
-0.12226
-0.135325
-0.137316
-0.130171
-0.114827
-0.0919607
-0.0619432
-0.0251868
0.0174618
0.0643903
0.112971
0.159432
0.198919
0.225956
0.235697
0.224276
0.183285
0.109334
-0.0939191
-0.159426
-0.193868
-0.205646
-0.204951
-0.194339
-0.174946
-0.147389
-0.111774
-0.0681262
-0.0168835
0.0406607
0.101966
0.162946
0.217839
0.259588
0.281276
0.276598
0.233356
0.146166
-0.180634
-0.252992
-0.288042
-0.296437
-0.290897
-0.274905
-0.249883
-0.216354
-0.174035
-0.122379
-0.0611778
0.0088704
0.085618
0.164927
0.240261
0.302816
0.343029
0.35104
0.308877
0.207488
-0.296089
-0.375499
-0.408684
-0.410053
-0.396149
-0.371846
-0.338951
-0.297824
-0.247619
-0.186975
-0.114737
-0.0306472
0.0639905
0.165462
0.266847
0.357696
0.425331
0.45498
0.420013
0.304653
-0.447963
-0.534047
-0.560437
-0.548365
-0.520352
-0.483235
-0.43923
-0.388356
-0.328931
-0.258473
-0.174527
-0.0753967
0.0389873
0.166063
0.299312
0.427226
0.533961
0.59846
0.581559
0.455444
-0.64954
-0.739319
-0.748806
-0.712104
-0.660843
-0.60424
-0.544637
-0.481264
-0.411148
-0.330255
-0.234413
-0.120042
0.0149939
0.17022
0.340781
0.515486
0.676196
0.79479
0.815141
0.688707
-0.926311
-1.00809
-0.979701
-0.899343
-0.811064
-0.72583
-0.645023
-0.566098
-0.483994
-0.392539
-0.285382
-0.156587
-0.00129849
0.183168
0.395358
0.626876
0.859892
1.06038
1.15202
1.05282
-1.32858
-1.36631
-1.25774
-1.10303
-0.958573
-0.833613
-0.725874
-0.629068
-0.534731
-0.433741
-0.317093
-0.176095
-0.00262749
0.210203
0.466432
0.764192
1.09121
1.41263
1.6345
1.62753
-1.95556
-1.85093
-1.58336
-1.30958
-1.08496
-0.908919
-0.770441
-0.655949
-0.551533
-0.444175
-0.321779
-0.172673
0.0148771
0.252905
0.553262
0.925606
1.37131
1.86533
2.31492
2.54269
-3.0423
-2.50719
-1.93305
-1.48566
-1.15925
-0.926813
-0.760824
-0.635054
-0.527666
-0.421039
-0.300043
-0.150292
0.0433687
0.298622
0.637475
1.0872
1.67378
2.40502
3.26085
4.07468
-5.23505
-3.35167
-2.15265
-1.49392
-1.08561
-0.825615
-0.660304
-0.547286
-0.456579
-0.367362
-0.263285
-0.129087
0.0517043
0.30046
0.648515
1.14436
1.85505
2.88358
4.51471
6.90024
-9.14842
-4.17339
-1.93622
-1.13053
-0.750536
-0.547558
-0.442669
-0.384429
-0.340979
-0.293175
-0.227267
-0.13105
0.00947006
0.21304
0.510934
0.962344
1.68256
2.95792
5.75017
11.2855
)
;

boundaryField
{
    movingWall
    {
        type            zeroGradient;
    }
    fixedWalls
    {
        type            zeroGradient;
    }
    frontAndBack
    {
        type            empty;
    }
}


// ************************************************************************* //
