/*--------------------------------*- C++ -*----------------------------------*\
  =========                 |
  \\      /  F ield         | OpenFOAM: The Open Source CFD Toolbox
   \\    /   O peration     | Website:  https://openfoam.org
    \\  /    A nd           | Version:  8
     \\/     M anipulation  |
\*---------------------------------------------------------------------------*/
FoamFile
{
    version     2.0;
    format      ascii;
    class       surfaceScalarField;
    location    "0.4";
    object      phi;
}
// * * * * * * * * * * * * * * * * * * * * * * * * * * * * * * * * * * * * * //

dimensions      [0 3 -1 0 0 0 0];

internalField   nonuniform List<scalar> 
760
(
2.99119e-08
-2.9924e-08
-5.24306e-08
8.23417e-08
-2.55178e-07
2.02747e-07
-5.41285e-07
2.86107e-07
-8.6825e-07
3.26966e-07
-1.19687e-06
3.28624e-07
-1.49362e-06
2.96745e-07
-1.73111e-06
2.37496e-07
-1.88808e-06
1.56969e-07
-1.94957e-06
6.1486e-08
-1.90775e-06
-4.18203e-08
-1.76322e-06
-1.44534e-07
-1.52637e-06
-2.36841e-07
-1.21847e-06
-3.07904e-07
-8.71647e-07
-3.46822e-07
-5.27415e-07
-3.44233e-07
-2.32832e-07
-2.94584e-07
-3.39138e-08
-1.9892e-07
3.69175e-08
-7.0832e-08
3.69176e-08
-7.8717e-08
4.87933e-08
-4.04341e-07
4.07965e-07
-9.62469e-07
7.60873e-07
-1.68464e-06
1.00828e-06
-2.48595e-06
1.12828e-06
-3.28179e-06
1.12446e-06
-3.99588e-06
1.01084e-06
-4.5641e-06
8.05714e-07
-4.93632e-06
5.29191e-07
-5.07809e-06
2.03253e-07
-4.97269e-06
-1.47219e-07
-4.62366e-06
-4.93572e-07
-4.05708e-06
-8.03419e-07
-3.32284e-06
-1.04215e-06
-2.49349e-06
-1.17617e-06
-1.65957e-06
-1.17815e-06
-9.19979e-07
-1.03418e-06
-3.66682e-07
-7.52218e-07
-6.20865e-08
-3.75428e-07
-2.51696e-08
-2.08175e-07
2.56968e-07
-7.95998e-07
9.95788e-07
-1.69218e-06
1.65705e-06
-2.79384e-06
2.10994e-06
-3.9851e-06
2.31954e-06
-5.15163e-06
2.29098e-06
-6.18967e-06
2.04889e-06
-7.01129e-06
1.62733e-06
-7.54756e-06
1.06546e-06
-7.75129e-06
4.06984e-07
-7.5999e-06
-2.98606e-07
-7.09859e-06
-9.94883e-07
-6.28311e-06
-1.61891e-06
-5.22106e-06
-2.1042e-06
-4.0103e-06
-2.38693e-06
-2.77274e-06
-2.41571e-06
-1.64232e-06
-2.1646e-06
-7.46747e-07
-1.64779e-06
-1.84271e-07
-9.37904e-07
-2.09442e-07
-3.26221e-07
5.83189e-07
-1.16792e-06
1.83749e-06
-2.38818e-06
2.87731e-06
-3.84173e-06
3.56349e-06
-5.38224e-06
3.86005e-06
-6.8716e-06
3.78035e-06
-8.18673e-06
3.36402e-06
-9.22395e-06
2.66455e-06
-9.90203e-06
1.74354e-06
-1.0165e-05
6.69924e-07
-9.98513e-06
-4.78446e-07
-9.36681e-06
-1.61321e-06
-8.34969e-06
-2.63603e-06
-7.01102e-06
-3.44286e-06
-5.46495e-06
-3.933e-06
-3.85697e-06
-4.02369e-06
-2.35217e-06
-3.6694e-06
-1.11704e-06
-2.88291e-06
-2.97383e-07
-1.75756e-06
-5.06825e-07
-4.33025e-07
1.01621e-06
-1.51574e-06
2.9202e-06
-3.0465e-06
4.40807e-06
-4.83405e-06
5.35103e-06
-6.70066e-06
5.72666e-06
-8.48692e-06
5.56661e-06
-1.0055e-05
4.93208e-06
-1.12906e-05
3.90012e-06
-1.21043e-05
2.55726e-06
-1.24335e-05
9.99179e-07
-1.22452e-05
-6.66766e-07
-1.15396e-05
-2.31885e-06
-1.03548e-05
-3.82082e-06
-8.77104e-06
-5.02661e-06
-6.91247e-06
-5.79157e-06
-4.94449e-06
-5.99167e-06
-3.06421e-06
-5.54968e-06
-1.48317e-06
-4.46396e-06
-4.04359e-07
-2.83637e-06
-9.11184e-07
-5.3289e-07
1.5491e-06
-1.84631e-06
4.23361e-06
-3.67604e-06
6.2378e-06
-5.78356e-06
7.45856e-06
-7.9595e-06
7.9026e-06
-1.0025e-05
7.63209e-06
-1.1831e-05
6.73806e-06
-1.32565e-05
5.32569e-06
-1.42075e-05
3.50826e-06
-1.46163e-05
1.40794e-06
-1.44434e-05
-8.39668e-07
-1.36816e-05
-3.08064e-06
-1.23618e-05
-5.14055e-06
-1.05605e-05
-6.82798e-06
-8.40541e-06
-7.94664e-06
-6.07862e-06
-8.31846e-06
-3.81086e-06
-7.81744e-06
-1.86586e-06
-6.40896e-06
-5.1418e-07
-4.18805e-06
-1.42536e-06
-6.29958e-07
2.17906e-06
-2.16788e-06
5.77153e-06
-4.28672e-06
8.35664e-06
-6.69978e-06
9.87161e-06
-9.16661e-06
1.03694e-05
-1.14916e-05
9.95708e-06
-1.35186e-05
8.7651e-06
-1.51248e-05
6.93189e-06
-1.6215e-05
4.59844e-06
-1.67186e-05
1.91146e-06
-1.65892e-05
-9.6902e-07
-1.58088e-05
-3.86104e-06
-1.43949e-05
-6.55451e-06
-1.24115e-05
-8.81133e-06
-9.98212e-06
-1.0376e-05
-7.29944e-06
-1.10011e-05
-4.62752e-06
-1.04894e-05
-2.28945e-06
-8.74703e-06
-6.36717e-07
-5.84079e-06
-2.06208e-06
-7.27736e-07
2.9068e-06
-2.48769e-06
7.53148e-06
-4.88557e-06
1.07545e-05
-7.5845e-06
1.25705e-05
-1.03144e-05
1.30994e-05
-1.28674e-05
1.25101e-05
-1.50864e-05
1.09841e-05
-1.68529e-05
8.69841e-06
-1.80764e-05
5.82194e-06
-1.86869e-05
2.52195e-06
-1.86321e-05
-1.02382e-06
-1.78801e-05
-4.61306e-06
-1.64281e-05
-8.00654e-06
-1.43176e-05
-1.09217e-05
-1.16553e-05
-1.30383e-05
-8.63367e-06
-1.40228e-05
-5.54513e-06
-1.35779e-05
-2.7778e-06
-1.15144e-05
-7.81863e-07
-7.83672e-06
-2.84394e-06
-8.29611e-07
3.73641e-06
-2.81231e-06
9.51419e-06
-5.4763e-06
1.34185e-05
-8.43048e-06
1.55247e-05
-1.13778e-05
1.60467e-05
-1.4105e-05
1.52372e-05
-1.64633e-05
1.33424e-05
-1.83481e-05
1.05833e-05
-1.96819e-05
7.15573e-06
-2.04014e-05
3.2415e-06
-2.04514e-05
-9.7383e-07
-1.97848e-05
-5.27968e-06
-1.83718e-05
-9.41953e-06
-1.62191e-05
-1.30745e-05
-1.33987e-05
-1.58587e-05
-1.00845e-05
-1.7337e-05
-6.58432e-06
-1.70781e-05
-3.35249e-06
-1.47462e-05
-9.59666e-07
-1.02295e-05
-3.80361e-06
-9.40387e-07
4.67679e-06
-3.15034e-06
1.17241e-05
-6.0615e-06
1.63297e-05
-9.22195e-06
1.86852e-05
-1.23124e-05
1.91371e-05
-1.51254e-05
1.80503e-05
-1.75342e-05
1.57511e-05
-1.94614e-05
1.25105e-05
-2.08542e-05
8.54855e-06
-2.16657e-05
4.053e-06
-2.18436e-05
-7.95958e-07
-2.13271e-05
-5.79617e-06
-2.00544e-05
-1.06922e-05
-1.79834e-05
-1.51455e-05
-1.51295e-05
-1.87126e-05
-1.1619e-05
-2.08476e-05
-7.74916e-06
-2.09479e-05
-4.03184e-06
-1.84635e-05
-1.18123e-06
-1.30802e-05
-4.98484e-06
-1.069e-06
5.74579e-06
-3.51689e-06
1.4172e-05
-6.646e-06
1.94588e-05
-9.93497e-06
2.19741e-05
-1.30519e-05
2.2254e-05
-1.58132e-05
2.08116e-05
-1.81332e-05
1.80712e-05
-1.99799e-05
1.43571e-05
-2.13404e-05
9.90906e-06
-2.21967e-05
4.90934e-06
-2.25093e-05
-4.83388e-07
-2.22092e-05
-6.09626e-06
-2.12011e-05
-1.17004e-05
-1.93823e-05
-1.69642e-05
-1.66855e-05
-2.14094e-05
-1.31499e-05
-2.43832e-05
-9.01767e-06
-2.50802e-05
-4.82956e-06
-2.26516e-05
-1.46036e-06
-1.64493e-05
-6.4452e-06
-1.23299e-06
6.97878e-06
-3.93958e-06
1.68786e-05
-7.23911e-06
2.27583e-05
-1.05337e-05
2.52688e-05
-1.34992e-05
2.52195e-05
-1.60044e-05
2.33168e-05
-1.80317e-05
2.00985e-05
-1.96161e-05
1.59416e-05
-2.08025e-05
1.10955e-05
-2.16164e-05
5.72317e-06
-2.20434e-05
-5.63556e-08
-2.20171e-05
-6.12256e-06
-2.14138e-05
-1.23037e-05
-2.00646e-05
-1.83134e-05
-1.77952e-05
-2.36788e-05
-1.45092e-05
-2.76691e-05
-1.03255e-05
-2.92639e-05
-5.75117e-06
-2.72259e-05
-1.81623e-06
-2.03843e-05
-8.26143e-06
-1.46583e-06
8.44461e-06
-4.46459e-06
1.98774e-05
-7.85032e-06
2.6144e-05
-1.09545e-05
2.83729e-05
-1.35028e-05
2.77679e-05
-1.54616e-05
2.52755e-05
-1.6916e-05
2.15529e-05
-1.79921e-05
1.70176e-05
-1.88084e-05
1.19118e-05
-1.94467e-05
6.36152e-06
-1.99318e-05
4.28732e-07
-2.02139e-05
-5.84046e-06
-2.01558e-05
-1.23618e-05
-1.95294e-05
-1.89398e-05
-1.80404e-05
-2.51677e-05
-1.54084e-05
-3.03011e-05
-1.15367e-05
-3.31357e-05
-6.78474e-06
-3.19779e-05
-2.27732e-06
-2.48917e-05
-1.05387e-05
-1.82803e-06
1.02726e-05
-5.15666e-06
2.3206e-05
-8.46418e-06
2.94516e-05
-1.10594e-05
3.09681e-05
-1.28019e-05
2.95104e-05
-1.38214e-05
2.6295e-05
-1.43462e-05
2.20777e-05
-1.46122e-05
1.72837e-05
-1.48195e-05
1.21191e-05
-1.51112e-05
6.65314e-06
-1.55591e-05
8.76616e-07
-1.61471e-05
-5.25238e-06
-1.67491e-05
-1.17598e-05
-1.71049e-05
-1.85841e-05
-1.6813e-05
-2.54596e-05
-1.53799e-05
-3.17343e-05
-1.23905e-05
-3.6125e-05
-7.87589e-06
-3.64925e-05
-2.88499e-06
-2.98826e-05
-1.34237e-05
-2.41885e-06
1.26915e-05
-6.07214e-06
2.68593e-05
-8.95949e-06
3.23389e-05
-1.05238e-05
3.25324e-05
-1.09093e-05
2.98958e-05
-1.04946e-05
2.58804e-05
-9.68279e-06
2.12659e-05
-8.82025e-06
1.64212e-05
-8.17577e-06
1.14746e-05
-7.941e-06
6.41837e-06
-8.23153e-06
1.16715e-06
-9.07687e-06
-4.40704e-06
-1.03939e-05
-1.04428e-05
-1.19415e-05
-1.70364e-05
-1.3268e-05
-2.41331e-05
-1.369e-05
-3.13122e-05
-1.24e-05
-3.7415e-05
-8.86042e-06
-4.00321e-05
-3.68526e-06
-3.50578e-05
-1.7109e-05
-3.36201e-06
1.60535e-05
-7.13451e-06
3.06318e-05
-8.88889e-06
3.40933e-05
-8.58904e-06
3.22325e-05
-6.89296e-06
2.81998e-05
-4.50047e-06
2.34879e-05
-1.97897e-06
1.87444e-05
2.57548e-07
1.41847e-05
1.91939e-06
9.81276e-06
2.80539e-06
5.53237e-06
2.77973e-06
1.1928e-06
1.7681e-06
-3.39541e-06
-2.2018e-07
-8.45454e-06
-3.03461e-06
-1.4222e-05
-6.28453e-06
-2.08832e-05
-9.21681e-06
-2.83799e-05
-1.06627e-05
-3.59692e-05
-9.28827e-06
-4.14065e-05
-4.66492e-06
-3.96811e-05
-2.17739e-05
-4.67423e-06
2.07277e-05
-7.71779e-06
3.36754e-05
-6.94115e-06
3.33166e-05
-3.57768e-06
2.88691e-05
9.80538e-07
2.36415e-05
5.75629e-06
1.87121e-05
1.0135e-05
1.43657e-05
1.3751e-05
1.05687e-05
1.63856e-05
7.17818e-06
1.7895e-05
4.02299e-06
1.81667e-05
9.21086e-07
1.71011e-05
-2.3298e-06
1.46189e-05
-5.97238e-06
1.07097e-05
-1.03128e-05
5.54846e-06
-1.57219e-05
-2.88632e-07
-2.25428e-05
-5.53022e-06
-3.07276e-05
-8.02883e-06
-3.89079e-05
-5.5354e-06
-4.21745e-05
-2.73093e-05
-5.75763e-06
2.64854e-05
-5.45876e-06
3.33765e-05
2.32587e-07
2.76253e-05
7.92842e-06
2.11732e-05
1.56994e-05
1.58706e-05
2.26682e-05
1.17433e-05
2.84699e-05
8.56401e-06
3.29784e-05
6.06016e-06
3.61621e-05
3.99442e-06
3.80054e-05
2.17971e-06
3.84666e-05
4.59928e-07
3.74556e-05
-1.31884e-06
3.48222e-05
-3.33894e-06
3.03679e-05
-5.85852e-06
2.39164e-05
-9.2704e-06
1.55234e-05
-1.41499e-05
5.95877e-06
-2.11629e-05
-2.44488e-06
-3.05042e-05
-5.18966e-06
-3.94298e-05
-3.2499e-05
-2.49906e-06
2.89844e-05
7.28063e-06
2.35968e-05
2.02714e-05
1.46345e-05
3.20323e-05
9.41239e-06
4.16514e-05
6.25144e-06
4.91864e-05
4.20831e-06
5.49024e-05
2.84799e-06
5.90642e-05
1.8984e-06
6.18735e-05
1.18505e-06
6.34542e-05
5.99078e-07
6.38464e-05
6.76956e-08
6.3002e-05
-4.74491e-07
6.07595e-05
-1.09642e-06
5.68122e-05
-1.91116e-06
5.06647e-05
-3.12294e-06
4.16474e-05
-5.13262e-06
2.92036e-05
-8.71913e-06
1.39627e-05
-1.52633e-05
6.55306e-07
-2.61224e-05
-3.18437e-05
2.89844e-05
5.25812e-05
6.72157e-05
7.66281e-05
8.28796e-05
8.70879e-05
8.99359e-05
9.18343e-05
9.30193e-05
9.36184e-05
9.36861e-05
9.32116e-05
9.21152e-05
9.0204e-05
8.70811e-05
8.19485e-05
7.32293e-05
5.7966e-05
3.18437e-05
)
;

boundaryField
{
    movingWall
    {
        type            calculated;
        value           uniform 0;
    }
    fixedWalls
    {
        type            calculated;
        value           uniform 0;
    }
    frontAndBack
    {
        type            empty;
        value           nonuniform List<scalar> 0();
    }
}


// ************************************************************************* //
