/*--------------------------------*- C++ -*----------------------------------*\
  =========                 |
  \\      /  F ield         | OpenFOAM: The Open Source CFD Toolbox
   \\    /   O peration     | Website:  https://openfoam.org
    \\  /    A nd           | Version:  8
     \\/     M anipulation  |
\*---------------------------------------------------------------------------*/
FoamFile
{
    version     2.0;
    format      ascii;
    class       volVectorField;
    location    "0.4";
    object      U;
}
// * * * * * * * * * * * * * * * * * * * * * * * * * * * * * * * * * * * * * //

dimensions      [0 1 -1 0 0 0 0];

internalField   nonuniform List<vector> 
400
(
(0.000543327 -0.000538745 0)
(0.000257521 0.000264549 0)
(-0.00267103 0.00124547 0)
(-0.00771622 0.00192652 0)
(-0.0140134 0.00226507 0)
(-0.0207234 0.00230243 0)
(-0.0271095 0.0020924 0)
(-0.0325584 0.00168564 0)
(-0.0365818 0.0011267 0)
(-0.0388145 0.000458684 0)
(-0.0390245 -0.000270138 0)
(-0.0371345 -0.00100101 0)
(-0.0332505 -0.00166252 0)
(-0.0276879 -0.00217256 0)
(-0.020985 -0.00244496 0)
(-0.0138916 -0.00240126 0)
(-0.00731688 -0.00198857 0)
(-0.00222733 -0.00120379 0)
(0.000525591 -0.000160912 0)
(0.000612646 0.00059758 0)
(-0.000206127 -0.000314042 0)
(-0.00366413 0.00369843 0)
(-0.0126952 0.00796833 0)
(-0.0259049 0.0109904 0)
(-0.041548 0.0124887 0)
(-0.0579009 0.012535 0)
(-0.0733347 0.0113156 0)
(-0.0864297 0.00905255 0)
(-0.0960342 0.00597689 0)
(-0.101294 0.00233405 0)
(-0.101687 -0.0015987 0)
(-0.0970709 -0.0054978 0)
(-0.087734 -0.00899122 0)
(-0.0744361 -0.0116742 0)
(-0.0584156 -0.0131464 0)
(-0.0413374 -0.0130736 0)
(-0.0251461 -0.0112737 0)
(-0.0118122 -0.00782522 0)
(-0.00308558 -0.00327675 0)
(-3.6644e-05 0.00059835 0)
(-0.00121902 0.00254843 0)
(-0.00833933 0.0127984 0)
(-0.0235303 0.0225091 0)
(-0.0441381 0.0293009 0)
(-0.0676471 0.0325592 0)
(-0.0917583 0.0323473 0)
(-0.114275 0.0290315 0)
(-0.133255 0.0231145 0)
(-0.147116 0.015165 0)
(-0.154683 0.00581339 0)
(-0.155247 -0.00422622 0)
(-0.148619 -0.0141357 0)
(-0.135199 -0.0229976 0)
(-0.116021 -0.029839 0)
(-0.0927579 -0.0337246 0)
(-0.0676536 -0.0339027 0)
(-0.0433205 -0.0300036 0)
(-0.0224197 -0.0222702 0)
(-0.00754235 -0.0118864 0)
(-0.000966786 -0.00185088 0)
(-0.00211784 0.00792721 0)
(-0.0127342 0.0271813 0)
(-0.0339058 0.0438222 0)
(-0.0615014 0.0550719 0)
(-0.0921673 0.0601529 0)
(-0.12311 0.0592061 0)
(-0.151718 0.0528446 0)
(-0.175699 0.041924 0)
(-0.193188 0.0274362 0)
(-0.202801 0.0104943 0)
(-0.203686 -0.00764117 0)
(-0.195594 -0.025537 0)
(-0.178951 -0.0415999 0)
(-0.154923 -0.0541503 0)
(-0.125438 -0.0615774 0)
(-0.0931383 -0.0625822 0)
(-0.061174 -0.0564985 0)
(-0.0328737 -0.0436464 0)
(-0.0118203 -0.0257366 0)
(-0.0017929 -0.00668152 0)
(-0.00290204 0.0155494 0)
(-0.0167822 0.0464834 0)
(-0.0436881 0.0714058 0)
(-0.0779647 0.0875758 0)
(-0.11537 0.0943363 0)
(-0.152633 0.0920819 0)
(-0.186805 0.0817834 0)
(-0.215347 0.0647236 0)
(-0.236212 0.0423728 0)
(-0.247874 0.0163726 0)
(-0.249359 -0.0114252 0)
(-0.240321 -0.0389218 0)
(-0.221123 -0.0637798 0)
(-0.192934 -0.0835183 0)
(-0.1578 -0.0957213 0)
(-0.118649 -0.0983767 0)
(-0.0791341 -0.0903274 0)
(-0.043322 -0.0717596 0)
(-0.0159669 -0.0446859 0)
(-0.00253443 -0.0136934 0)
(-0.00362036 0.025227 0)
(-0.0205984 0.0704829 0)
(-0.053026 0.105062 0)
(-0.0937307 0.126593 0)
(-0.137562 0.134842 0)
(-0.180785 0.130683 0)
(-0.220172 0.115593 0)
(-0.253021 0.0913714 0)
(-0.277183 0.0600073 0)
(-0.291038 0.0236838 0)
(-0.293504 -0.0151587 0)
(-0.284094 -0.0537525 0)
(-0.263012 -0.0889881 0)
(-0.231299 -0.117504 0)
(-0.190976 -0.135932 0)
(-0.145154 -0.141319 0)
(-0.0979607 -0.13173 0)
(-0.0542912 -0.106905 0)
(-0.0202715 -0.0688928 0)
(-0.003278 -0.022842 0)
(-0.00431752 0.0368624 0)
(-0.0243145 0.0990215 0)
(-0.0621098 0.1446 0)
(-0.109 0.171883 0)
(-0.15892 0.181381 0)
(-0.207703 0.174708 0)
(-0.251917 0.15403 0)
(-0.288788 0.121756 0)
(-0.316155 0.0804236 0)
(-0.33237 0.0327364 0)
(-0.336261 -0.0183256 0)
(-0.327159 -0.0693767 0)
(-0.305012 -0.116553 0)
(-0.27058 -0.155561 0)
(-0.225685 -0.181918 0)
(-0.173463 -0.191452 0)
(-0.11844 -0.181053 0)
(-0.0663991 -0.149583 0)
(-0.0250767 -0.0987804 0)
(-0.00411753 -0.0342798 0)
(-0.00503104 0.0504352 0)
(-0.028049 0.132014 0)
(-0.071103 0.18983 0)
(-0.123884 0.223127 0)
(-0.179402 0.233524 0)
(-0.233126 0.223688 0)
(-0.281527 0.196679 0)
(-0.321895 0.155622 0)
(-0.352181 0.103618 0)
(-0.370809 0.0438295 0)
(-0.376559 -0.0203262 0)
(-0.368567 -0.0849602 0)
(-0.346428 -0.145538 0)
(-0.310445 -0.196832 0)
(-0.262001 -0.233108 0)
(-0.204006 -0.24864 0)
(-0.141199 -0.238636 0)
(-0.0802366 -0.200474 0)
(-0.0307322 -0.13506 0)
(-0.00514916 -0.0483603 0)
(-0.0057986 0.0659917 0)
(-0.0319198 0.169446 0)
(-0.0801433 0.240535 0)
(-0.138385 0.27985 0)
(-0.198713 0.290577 0)
(-0.25634 0.276818 0)
(-0.307817 0.242774 0)
(-0.35069 0.192399 0)
(-0.383208 0.129345 0)
(-0.404014 0.0571395 0)
(-0.411942 -0.02053 0)
(-0.40595 -0.0994651 0)
(-0.385206 -0.174637 0)
(-0.349363 -0.239978 0)
(-0.299057 -0.288416 0)
(-0.236589 -0.312337 0)
(-0.16655 -0.304634 0)
(-0.0962978 -0.260343 0)
(-0.0375898 -0.17871 0)
(-0.00647828 -0.0656373 0)
(-0.00667625 0.083654 0)
(-0.0360919 0.211366 0)
(-0.089397 0.296415 0)
(-0.152427 0.341296 0)
(-0.216292 0.351397 0)
(-0.276132 0.332741 0)
(-0.328847 0.290965 0)
(-0.372515 0.230964 0)
(-0.40594 0.156916 0)
(-0.428202 0.0725602 0)
(-0.438347 -0.0183724 0)
(-0.435239 -0.111662 0)
(-0.41759 -0.202083 0)
(-0.384226 -0.28296 0)
(-0.33467 -0.345937 0)
(-0.270079 -0.381234 0)
(-0.194287 -0.378695 0)
(-0.114917 -0.32984 0)
(-0.0460198 -0.230909 0)
(-0.00823703 -0.0868753 0)
(-0.0077713 0.103671 0)
(-0.040862 0.257917 0)
(-0.0991482 0.357016 0)
(-0.165897 0.406258 0)
(-0.231284 0.414149 0)
(-0.290702 0.38927 0)
(-0.341793 0.339038 0)
(-0.383554 0.26939 0)
(-0.415676 0.184957 0)
(-0.437954 0.0894994 0)
(-0.449873 -0.0135087 0)
(-0.450366 -0.120206 0)
(-0.437744 -0.225611 0)
(-0.409891 -0.322865 0)
(-0.364852 -0.402607 0)
(-0.301971 -0.452798 0)
(-0.22341 -0.459495 0)
(-0.136174 -0.409162 0)
(-0.0564421 -0.292932 0)
(-0.0106151 -0.113086 0)
(-0.00930052 0.126544 0)
(-0.0467862 0.309408 0)
(-0.109897 0.421626 0)
(-0.178633 0.472825 0)
(-0.242411 0.475989 0)
(-0.297444 0.443074 0)
(-0.342709 0.383627 0)
(-0.378611 0.30468 0)
(-0.406118 0.211181 0)
(-0.426055 0.106659 0)
(-0.438615 -0.00601631 0)
(-0.443039 -0.1238 0)
(-0.437413 -0.242523 0)
(-0.418705 -0.3558 0)
(-0.383225 -0.453875 0)
(-0.32779 -0.522717 0)
(-0.251656 -0.544073 0)
(-0.159699 -0.49753 0)
(-0.0693628 -0.365966 0)
(-0.0139126 -0.145611 0)
(-0.0116937 0.153271 0)
(-0.0548608 0.366405 0)
(-0.122397 0.489051 0)
(-0.190209 0.537971 0)
(-0.247542 0.532624 0)
(-0.292433 0.489296 0)
(-0.326028 0.419932 0)
(-0.350717 0.332565 0)
(-0.369121 0.232212 0)
(-0.383367 0.121854 0)
(-0.394608 0.00338661 0)
(-0.402669 -0.121435 0)
(-0.405727 -0.249899 0)
(-0.400096 -0.376955 0)
(-0.38036 -0.493472 0)
(-0.340267 -0.584303 0)
(-0.274755 -0.626939 0)
(-0.184267 -0.592338 0)
(-0.0853853 -0.450757 0)
(-0.0186275 -0.186288 0)
(-0.0157673 0.185787 0)
(-0.0667205 0.429739 0)
(-0.137417 0.55708 0)
(-0.199175 0.596824 0)
(-0.242624 0.577682 0)
(-0.269304 0.521161 0)
(-0.283599 0.44155 0)
(-0.290434 0.347487 0)
(-0.294308 0.243617 0)
(-0.298735 0.131995 0)
(-0.305936 0.0132015 0)
(-0.31656 -0.112683 0)
(-0.329296 -0.244992 0)
(-0.340366 -0.380963 0)
(-0.343129 -0.513494 0)
(-0.328258 -0.628017 0)
(-0.28518 -0.698979 0)
(-0.206936 -0.687802 0)
(-0.105069 -0.546865 0)
(-0.0255679 -0.23768 0)
(-0.0229413 0.227632 0)
(-0.0846202 0.500123 0)
(-0.154635 0.621271 0)
(-0.200995 0.641458 0)
(-0.219272 0.601955 0)
(-0.217012 0.529741 0)
(-0.20293 0.440652 0)
(-0.184698 0.342999 0)
(-0.168498 0.24035 0)
(-0.15893 0.133407 0)
(-0.159081 0.0212183 0)
(-0.170483 -0.0979706 0)
(-0.19276 -0.225854 0)
(-0.222904 -0.36273 0)
(-0.254231 -0.505101 0)
(-0.275373 -0.641529 0)
(-0.270101 -0.746407 0)
(-0.221135 -0.772986 0)
(-0.128167 -0.651083 0)
(-0.0358428 -0.303254 0)
(-0.0351625 0.284984 0)
(-0.110168 0.576559 0)
(-0.16897 0.672312 0)
(-0.183065 0.658989 0)
(-0.15992 0.592728 0)
(-0.115941 0.504306 0)
(-0.0644707 0.408938 0)
(-0.0152165 0.312959 0)
(0.0249521 0.217895 0)
(0.0512612 0.122723 0)
(0.0604115 0.0249828 0)
(0.0502707 -0.0786792 0)
(0.0200227 -0.1921 0)
(-0.0290813 -0.318826 0)
(-0.0921864 -0.460178 0)
(-0.158428 -0.610845 0)
(-0.208067 -0.750266 0)
(-0.212579 -0.829158 0)
(-0.150894 -0.754498 0)
(-0.0500731 -0.387593 0)
(-0.0530892 0.368887 0)
(-0.138646 0.65154 0)
(-0.160309 0.68995 0)
(-0.113882 0.628229 0)
(-0.0292614 0.533326 0)
(0.0677963 0.43365 0)
(0.161607 0.33972 0)
(0.242926 0.253697 0)
(0.306302 0.174195 0)
(0.348367 0.0983971 0)
(0.366704 0.022767 0)
(0.359231 -0.0568889 0)
(0.324061 -0.145591 0)
(0.259956 -0.249263 0)
(0.167829 -0.374002 0)
(0.0540237 -0.522857 0)
(-0.06403 -0.686851 0)
(-0.1514 -0.826261 0)
(-0.158713 -0.836968 0)
(-0.0648925 -0.497162 0)
(-0.0662874 0.492411 0)
(-0.139663 0.696512 0)
(-0.0683871 0.633089 0)
(0.0773321 0.517959 0)
(0.238118 0.406353 0)
(0.388137 0.310982 0)
(0.516953 0.232613 0)
(0.620477 0.167856 0)
(0.697557 0.112523 0)
(0.747983 0.0627119 0)
(0.771334 0.0147873 0)
(0.766381 -0.0350466 0)
(0.730738 -0.0913598 0)
(0.660774 -0.16032 0)
(0.55224 -0.250469 0)
(0.402791 -0.372325 0)
(0.217659 -0.533287 0)
(0.0219459 -0.720804 0)
(-0.109465 -0.852665 0)
(-0.06034 -0.628943 0)
(0.00531973 0.597645 0)
(0.0183454 0.625378 0)
(0.263911 0.452843 0)
(0.528878 0.316253 0)
(0.746035 0.221384 0)
(0.91667 0.155143 0)
(1.04814 0.108311 0)
(1.14609 0.0740367 0)
(1.21518 0.0474232 0)
(1.25874 0.0251028 0)
(1.27847 0.00458832 0)
(1.27435 -0.016337 0)
(1.24439 -0.0403003 0)
(1.18403 -0.0711893 0)
(1.08543 -0.115639 0)
(0.936973 -0.185265 0)
(0.722488 -0.298725 0)
(0.427895 -0.477968 0)
(0.121145 -0.704162 0)
(0.055411 -0.684312 0)
(0.647817 0.316796 0)
(0.847373 0.278544 0)
(1.19076 0.170152 0)
(1.44767 0.101087 0)
(1.60502 0.0612945 0)
(1.70621 0.0377747 0)
(1.77473 0.0235336 0)
(1.82111 0.0145375 0)
(1.8513 0.00840627 0)
(1.86879 0.00376607 0)
(1.87534 -0.000219451 0)
(1.8714 -0.00416008 0)
(1.85612 -0.00874784 0)
(1.82692 -0.0150522 0)
(1.77828 -0.0251921 0)
(1.6992 -0.0437163 0)
(1.56443 -0.080327 0)
(1.31673 -0.153704 0)
(0.940758 -0.279802 0)
(0.692216 -0.332671 0)
)
;

boundaryField
{
    movingWall
    {
        type            fixedValue;
        value           uniform (2.2 0 0);
    }
    fixedWalls
    {
        type            noSlip;
    }
    frontAndBack
    {
        type            empty;
    }
}


// ************************************************************************* //
