/*--------------------------------*- C++ -*----------------------------------*\
  =========                 |
  \\      /  F ield         | OpenFOAM: The Open Source CFD Toolbox
   \\    /   O peration     | Website:  https://openfoam.org
    \\  /    A nd           | Version:  8
     \\/     M anipulation  |
\*---------------------------------------------------------------------------*/
FoamFile
{
    version     2.0;
    format      ascii;
    class       surfaceScalarField;
    location    "0.2";
    object      phi;
}
// * * * * * * * * * * * * * * * * * * * * * * * * * * * * * * * * * * * * * //

dimensions      [0 3 -1 0 0 0 0];

internalField   nonuniform List<scalar> 
760
(
4.67513e-08
-4.69781e-08
-9.09854e-08
1.37734e-07
-4.22472e-07
3.31492e-07
-8.85866e-07
4.63394e-07
-1.41355e-06
5.2768e-07
-1.94483e-06
5.31286e-07
-2.42804e-06
4.83213e-07
-2.81995e-06
3.91909e-07
-3.08504e-06
2.65087e-07
-3.19609e-06
1.11049e-07
-3.13646e-06
-5.96355e-08
-2.90355e-06
-2.32914e-07
-2.51251e-06
-3.91035e-07
-1.99891e-06
-5.136e-07
-1.41886e-06
-5.8004e-07
-8.45466e-07
-5.73397e-07
-3.60356e-07
-4.85108e-07
-4.0286e-08
-3.2007e-07
6.57883e-08
-1.06075e-07
6.57871e-08
-1.34256e-07
8.72657e-08
-6.73362e-07
6.76848e-07
-1.58651e-06
1.24464e-06
-2.76019e-06
1.63708e-06
-4.05914e-06
1.82663e-06
-5.35109e-06
1.82323e-06
-6.51681e-06
1.64894e-06
-7.45392e-06
1.32902e-06
-8.07888e-06
8.90046e-07
-8.33017e-06
3.62336e-07
-8.17344e-06
-2.16364e-07
-7.60808e-06
-7.98277e-07
-6.67351e-06
-1.3256e-06
-5.45284e-06
-1.73427e-06
-4.07116e-06
-1.96172e-06
-2.68593e-06
-1.95863e-06
-1.46752e-06
-1.70351e-06
-5.69627e-07
-1.21796e-06
-8.88428e-08
-5.86856e-07
-2.30559e-08
-3.49547e-07
4.36814e-07
-1.32067e-06
1.64798e-06
-2.78702e-06
2.71099e-06
-4.57931e-06
3.42936e-06
-6.51342e-06
3.76075e-06
-8.41047e-06
3.72028e-06
-1.01077e-05
3.34616e-06
-1.14641e-05
2.68547e-06
-1.23649e-05
1.79077e-06
-1.27259e-05
7.23382e-07
-1.25012e-05
-4.41039e-07
-1.16909e-05
-1.60866e-06
-1.03484e-05
-2.66801e-06
-8.58571e-06
-3.497e-06
-6.57022e-06
-3.97721e-06
-4.51337e-06
-4.01548e-06
-2.64639e-06
-3.57049e-06
-1.18467e-06
-2.67969e-06
-2.84167e-07
-1.48735e-06
-3.07223e-07
-5.45929e-07
9.82748e-07
-1.93357e-06
3.03562e-06
-3.92714e-06
4.70456e-06
-6.28968e-06
5.7919e-06
-8.79024e-06
6.26131e-06
-1.12138e-05
6.14381e-06
-1.33676e-05
5.49997e-06
-1.50854e-05
4.40334e-06
-1.62314e-05
2.93674e-06
-1.67052e-05
1.19714e-06
-1.64496e-05
-6.96612e-07
-1.546e-05
-2.59826e-06
-1.37934e-05
-4.33459e-06
-1.15753e-05
-5.7151e-06
-8.99987e-06
-6.55267e-06
-6.31975e-06
-6.6956e-06
-3.82231e-06
-6.06793e-06
-1.79225e-06
-4.70975e-06
-4.66978e-07
-2.81262e-06
-7.742e-07
-7.22089e-07
1.70484e-06
-2.49993e-06
4.81346e-06
-4.99148e-06
7.19611e-06
-7.88823e-06
8.68866e-06
-1.09126e-05
9.28572e-06
-1.38188e-05
9.04998e-06
-1.63924e-05
8.07354e-06
-1.84503e-05
6.46125e-06
-1.98421e-05
4.3285e-06
-2.04536e-05
1.80872e-06
-2.02146e-05
-9.35609e-07
-1.91084e-05
-3.70446e-06
-1.71841e-05
-6.25894e-06
-1.45675e-05
-8.33171e-06
-1.14676e-05
-9.65251e-06
-8.1726e-06
-9.99063e-06
-5.02949e-06
-9.21104e-06
-2.40665e-06
-7.33259e-06
-6.43153e-07
-4.57612e-06
-1.41735e-06
-8.8281e-07
2.58765e-06
-3.02457e-06
6.95522e-06
-5.98388e-06
1.01554e-05
-9.38168e-06
1.20865e-05
-1.28957e-05
1.27997e-05
-1.62536e-05
1.24079e-05
-1.92258e-05
1.10458e-05
-2.16191e-05
8.85457e-06
-2.32734e-05
5.98274e-06
-2.40622e-05
2.59759e-06
-2.38989e-05
-1.09893e-06
-2.27468e-05
-4.85661e-06
-2.06345e-05
-8.37114e-06
-1.76742e-05
-1.1292e-05
-1.40769e-05
-1.32498e-05
-1.01598e-05
-1.39077e-05
-6.33447e-06
-1.30364e-05
-3.06969e-06
-1.05974e-05
-8.29894e-07
-6.81591e-06
-2.24725e-06
-1.03228e-06
3.61993e-06
-3.51391e-06
9.43685e-06
-6.90912e-06
1.35506e-05
-1.07709e-05
1.59482e-05
-1.47356e-05
1.67644e-05
-1.85104e-05
1.61827e-05
-2.18575e-05
1.43929e-05
-2.45808e-05
1.15778e-05
-2.6516e-05
7.91795e-06
-2.7527e-05
3.6086e-06
-2.75084e-05
-1.11751e-06
-2.63959e-05
-5.96913e-06
-2.41846e-05
-1.05824e-05
-2.09553e-05
-1.45213e-05
-1.69034e-05
-1.73017e-05
-1.23628e-05
-1.84484e-05
-7.80963e-06
-1.75895e-05
-3.83051e-06
-1.45765e-05
-1.04662e-06
-9.5998e-06
-3.29387e-06
-1.17353e-06
4.79346e-06
-3.97261e-06
1.22359e-05
-7.76763e-06
1.73456e-05
-1.20453e-05
2.02259e-05
-1.64056e-05
2.11247e-05
-2.05426e-05
2.03197e-05
-2.42201e-05
1.80704e-05
-2.72489e-05
1.46066e-05
-2.94691e-05
1.01382e-05
-3.07403e-05
4.87983e-06
-3.09394e-05
-9.18394e-07
-2.99689e-05
-6.93967e-06
-2.77772e-05
-1.27741e-05
-2.43927e-05
-1.79058e-05
-1.99695e-05
-2.1725e-05
-1.48346e-05
-2.35833e-05
-9.51807e-06
-2.2906e-05
-4.73795e-06
-1.93566e-05
-1.31333e-06
-1.30244e-05
-4.6072e-06
-1.30947e-06
6.10293e-06
-4.40508e-06
1.53315e-05
-8.55664e-06
2.14972e-05
-1.31835e-05
2.48527e-05
-1.78552e-05
2.57964e-05
-2.22638e-05
2.47283e-05
-2.61878e-05
2.19944e-05
-2.94587e-05
1.78775e-05
-3.19342e-05
1.26137e-05
-3.34801e-05
6.42573e-06
-3.39618e-05
-4.36711e-07
-3.32478e-05
-7.6537e-06
-3.1229e-05
-1.47929e-05
-2.78587e-05
-2.1276e-05
-2.32145e-05
-2.63692e-05
-1.75766e-05
-2.92212e-05
-1.14998e-05
-2.89828e-05
-5.83584e-06
-2.50206e-05
-1.65062e-06
-1.72096e-05
-6.25782e-06
-1.44568e-06
7.54861e-06
-4.82102e-06
1.87069e-05
-9.27647e-06
2.59526e-05
-1.41587e-05
2.9735e-05
-1.90148e-05
3.06525e-05
-2.35502e-05
2.92636e-05
-2.75766e-05
2.60209e-05
-3.09654e-05
2.12663e-05
-3.36102e-05
1.52585e-05
-3.54e-05
8.2155e-06
-3.62022e-05
3.65457e-07
-3.58584e-05
-7.99747e-06
-3.41979e-05
-1.64533e-05
-3.10774e-05
-2.43965e-05
-2.6456e-05
-3.09906e-05
-2.05082e-05
-3.51691e-05
-1.3755e-05
-3.57359e-05
-7.15895e-06
-3.16167e-05
-2.08094e-06
-2.22877e-05
-8.33876e-06
-1.5953e-06
9.14391e-06
-5.24476e-06
2.23563e-05
-9.9404e-06
3.06483e-05
-1.49464e-05
3.4741e-05
-1.98e-05
3.55061e-05
-2.4243e-05
3.37066e-05
-2.81459e-05
2.99237e-05
-3.14447e-05
2.45651e-05
-3.40929e-05
1.79067e-05
-3.60257e-05
1.01483e-05
-3.71346e-05
1.47429e-06
-3.72518e-05
-7.88019e-06
-3.61525e-05
-1.75527e-05
-3.35841e-05
-2.69649e-05
-2.9345e-05
-3.52297e-05
-2.34265e-05
-4.10876e-05
-1.62194e-05
-4.2943e-05
-8.72622e-06
-3.91098e-05
-2.63068e-06
-2.83832e-05
-1.09694e-05
-1.78689e-06
1.09308e-05
-5.72801e-06
2.62975e-05
-1.05849e-05
3.55052e-05
-1.5528e-05
3.96841e-05
-2.01097e-05
4.00878e-05
-2.41439e-05
3.77408e-05
-2.75943e-05
3.33741e-05
-3.04921e-05
2.74628e-05
-3.28779e-05
2.02925e-05
-3.47605e-05
1.2031e-05
-3.60838e-05
2.79755e-06
-3.67e-05
-7.26395e-06
-3.63537e-05
-1.7899e-05
-3.46898e-05
-2.86288e-05
-3.13153e-05
-3.86043e-05
-2.59535e-05
-4.64494e-05
-1.87251e-05
-5.01714e-05
-1.05277e-05
-4.73073e-05
-3.33329e-06
-3.55776e-05
-1.43027e-05
-2.07722e-06
1.3008e-05
-6.36448e-06
3.05847e-05
-1.12724e-05
4.04131e-05
-1.58788e-05
4.42905e-05
-1.98034e-05
4.40125e-05
-2.29891e-05
4.09265e-05
-2.55384e-05
3.59235e-05
-2.76111e-05
2.95356e-05
-2.93617e-05
2.20431e-05
-3.08975e-05
1.35668e-05
-3.22449e-05
4.14497e-06
-3.33137e-05
-6.19521e-06
-3.38602e-05
-1.73525e-05
-3.3462e-05
-2.90269e-05
-3.15367e-05
-4.05295e-05
-2.74704e-05
-5.05158e-05
-2.09419e-05
-5.66998e-05
-1.24973e-05
-5.57519e-05
-4.23254e-06
-4.38423e-05
-1.85353e-05
-2.57137e-06
1.55794e-05
-7.29875e-06
3.53121e-05
-1.20654e-05
4.51797e-05
-1.59089e-05
4.8134e-05
-1.8624e-05
4.67275e-05
-2.03706e-05
4.26731e-05
-2.14458e-05
3.69987e-05
-2.21685e-05
3.02582e-05
-2.28226e-05
2.26972e-05
-2.36279e-05
1.43721e-05
-2.47139e-05
5.231e-06
-2.60844e-05
-4.82476e-06
-2.75644e-05
-1.58725e-05
-2.87346e-05
-2.78568e-05
-2.88808e-05
-4.03833e-05
-2.70386e-05
-5.23579e-05
-2.22834e-05
-6.1455e-05
-1.44562e-05
-6.35791e-05
-5.3809e-06
-5.29176e-05
-2.39162e-05
-3.44737e-06
1.90267e-05
-8.6993e-06
4.0564e-05
-1.29159e-05
4.93964e-05
-1.52929e-05
5.05109e-05
-1.60058e-05
4.74404e-05
-1.55546e-05
4.22219e-05
-1.44847e-05
3.59289e-05
-1.32846e-05
2.90581e-05
-1.23586e-05
2.17712e-05
-1.20252e-05
1.40388e-05
-1.25142e-05
5.71999e-06
-1.39432e-05
-3.3958e-06
-1.62624e-05
-1.35532e-05
-1.91566e-05
-2.49626e-05
-2.19113e-05
-3.76286e-05
-2.33106e-05
-5.09586e-05
-2.17578e-05
-6.30079e-05
-1.59831e-05
-6.93538e-05
-6.8087e-06
-6.2092e-05
-3.07249e-05
-4.9503e-06
2.3977e-05
-1.05881e-05
4.62018e-05
-1.33236e-05
5.21319e-05
-1.30497e-05
5.02371e-05
-1.06625e-05
4.50532e-05
-7.12708e-06
3.86864e-05
-3.24637e-06
3.20482e-05
3.63385e-07
2.54483e-05
3.23632e-06
1.88983e-05
5.01019e-06
1.22649e-05
5.39707e-06
5.33312e-06
4.18e-06
-2.17872e-06
1.25134e-06
-1.06246e-05
-3.28423e-06
-2.0427e-05
-8.91288e-06
-3.19999e-05
-1.4429e-05
-4.54425e-05
-1.77233e-05
-5.97136e-05
-1.61258e-05
-7.09513e-05
-8.38738e-06
-6.98305e-05
-3.91122e-05
-7.21901e-06
3.11961e-05
-1.21941e-05
5.11769e-05
-1.14204e-05
5.13582e-05
-6.63319e-06
4.54499e-05
1.69293e-07
3.82508e-05
7.5705e-06
3.12852e-05
1.46426e-05
2.49761e-05
2.07904e-05
1.93005e-05
2.56154e-05
1.40733e-05
2.88176e-05
9.06271e-06
3.01335e-05
4.01727e-06
2.93048e-05
-1.35006e-06
2.60839e-05
-7.40365e-06
2.02982e-05
-1.46413e-05
1.20418e-05
-2.37435e-05
2.0805e-06
-3.54813e-05
-7.51038e-06
-5.01227e-05
-1.28402e-05
-6.56215e-05
-9.44914e-06
-7.32215e-05
-4.85614e-05
-9.51607e-06
4.07121e-05
-9.9286e-06
5.15895e-05
-1.79403e-06
4.32236e-05
9.76838e-06
3.38875e-05
2.18422e-05
2.61769e-05
3.30671e-05
2.00604e-05
4.28127e-05
1.52304e-05
5.07921e-05
1.13211e-05
5.68625e-05
8.00283e-06
6.09137e-05
5.01155e-06
6.28042e-05
2.12676e-06
6.23217e-05
-8.67538e-07
5.91528e-05
-4.23481e-06
5.28773e-05
-8.3658e-06
4.30435e-05
-1.39097e-05
2.94914e-05
-2.19292e-05
1.32305e-05
-3.38617e-05
-1.90027e-06
-5.04908e-05
-7.95759e-06
-6.71642e-05
-5.6519e-05
-5.4291e-06
4.61412e-05
8.97576e-06
3.71846e-05
2.89427e-05
2.32567e-05
4.74298e-05
1.54004e-05
6.29967e-05
1.061e-05
7.5638e-05
7.41908e-06
8.564e-05
5.22846e-06
9.33062e-05
3.65491e-06
9.88692e-05
2.43976e-06
0.000102463
1.41825e-06
0.000104109
4.80276e-07
0.00010371
-4.68702e-07
0.000101
-1.52486e-06
9.5484e-05
-2.84958e-06
8.63227e-05
-4.74833e-06
7.22764e-05
-7.88295e-06
5.21063e-05
-1.36916e-05
2.6445e-05
-2.48295e-05
2.92942e-06
-4.36485e-05
-5.35896e-05
4.61412e-05
8.33258e-05
0.000106583
0.000121983
0.000132593
0.000140012
0.00014524
0.000148895
0.000151335
0.000152753
0.000153234
0.000152765
0.00015124
0.00014839
0.000143642
0.000135759
0.000122068
9.72381e-05
5.35896e-05
)
;

boundaryField
{
    movingWall
    {
        type            calculated;
        value           uniform 0;
    }
    fixedWalls
    {
        type            calculated;
        value           uniform 0;
    }
    frontAndBack
    {
        type            empty;
        value           nonuniform List<scalar> 0();
    }
}


// ************************************************************************* //
