/*--------------------------------*- C++ -*----------------------------------*\
  =========                 |
  \\      /  F ield         | OpenFOAM: The Open Source CFD Toolbox
   \\    /   O peration     | Website:  https://openfoam.org
    \\  /    A nd           | Version:  8
     \\/     M anipulation  |
\*---------------------------------------------------------------------------*/
FoamFile
{
    version     2.0;
    format      ascii;
    class       volVectorField;
    location    "0.2";
    object      U;
}
// * * * * * * * * * * * * * * * * * * * * * * * * * * * * * * * * * * * * * //

dimensions      [0 1 -1 0 0 0 0];

internalField   nonuniform List<vector> 
400
(
(0.000866823 -0.000865875 0)
(0.000341443 0.000458578 0)
(-0.00448494 0.00203655 0)
(-0.0126891 0.00311264 0)
(-0.0228626 0.00364487 0)
(-0.0336926 0.00371438 0)
(-0.0440457 0.00340711 0)
(-0.0529699 0.00279187 0)
(-0.0596754 0.00192206 0)
(-0.0635278 0.000850371 0)
(-0.0640773 -0.000354115 0)
(-0.0611183 -0.0015934 0)
(-0.0547655 -0.00273632 0)
(-0.0455226 -0.00362557 0)
(-0.0343157 -0.00409621 0)
(-0.0224643 -0.00400535 0)
(-0.0115631 -0.00327078 0)
(-0.00326232 -0.00191547 0)
(0.00107269 -0.000174713 0)
(0.00105422 0.00102349 0)
(-0.000393771 -0.000429522 0)
(-0.00618222 0.00616535 0)
(-0.0210366 0.0130363 0)
(-0.042567 0.0178272 0)
(-0.0679396 0.0201931 0)
(-0.0944465 0.0203043 0)
(-0.119553 0.0184558 0)
(-0.141024 0.0149531 0)
(-0.156988 0.0100944 0)
(-0.165974 0.00420949 0)
(-0.166997 -0.00228607 0)
(-0.15968 -0.00885232 0)
(-0.144388 -0.0148202 0)
(-0.122344 -0.0194335 0)
(-0.0956566 -0.0219415 0)
(-0.0672184 -0.0217402 0)
(-0.0404091 -0.0185501 0)
(-0.0185911 -0.0126106 0)
(-0.00459823 -0.00500325 0)
(6.67691e-05 0.00120008 0)
(-0.0020883 0.00439882 0)
(-0.0139401 0.0212167 0)
(-0.0389078 0.0368378 0)
(-0.0725162 0.0476161 0)
(-0.110697 0.0527686 0)
(-0.149846 0.0525056 0)
(-0.186536 0.0474004 0)
(-0.2177 0.0381479 0)
(-0.240754 0.0255067 0)
(-0.253683 0.0103551 0)
(-0.255153 -0.00621823 0)
(-0.244667 -0.02285 0)
(-0.222735 -0.0379091 0)
(-0.191005 -0.0496024 0)
(-0.152304 -0.0561924 0)
(-0.110508 -0.0563221 0)
(-0.0701573 -0.0494172 0)
(-0.0358207 -0.0361009 0)
(-0.0117545 -0.0186931 0)
(-0.00140185 -0.00249895 0)
(-0.00359777 0.0134171 0)
(-0.0212222 0.044967 0)
(-0.0559552 0.0717063 0)
(-0.100901 0.0895473 0)
(-0.150674 0.0975838 0)
(-0.200924 0.0962067 0)
(-0.247591 0.0863621 0)
(-0.287057 0.0692305 0)
(-0.316273 0.0461478 0)
(-0.33285 0.0186822 0)
(-0.335174 -0.0112377 0)
(-0.322586 -0.041232 0)
(-0.295572 -0.0684862 0)
(-0.255942 -0.0899228 0)
(-0.206914 -0.102555 0)
(-0.153043 -0.104019 0)
(-0.0998281 -0.093237 0)
(-0.0530545 -0.0710725 0)
(-0.0187097 -0.0409543 0)
(-0.00271323 -0.010019 0)
(-0.00490855 0.0261597 0)
(-0.0278589 0.0767512 0)
(-0.0718234 0.116722 0)
(-0.127458 0.142334 0)
(-0.188017 0.153046 0)
(-0.248464 0.149709 0)
(-0.304256 0.133797 0)
(-0.3514 0.107069 0)
(-0.386545 0.0714985 0)
(-0.407022 0.0293924 0)
(-0.410949 -0.0164295 0)
(-0.397405 -0.0625011 0)
(-0.366664 -0.104714 0)
(-0.320431 -0.13853 0)
(-0.262052 -0.159453 0)
(-0.196559 -0.163774 0)
(-0.130376 -0.149526 0)
(-0.0706844 -0.117437 0)
(-0.025595 -0.0717208 0)
(-0.00390519 -0.0210883 0)
(-0.00608128 0.0422614 0)
(-0.0339571 0.116063 0)
(-0.086584 0.171377 0)
(-0.152263 0.205444 0)
(-0.222915 0.218597 0)
(-0.292878 0.212496 0)
(-0.357239 0.18935 0)
(-0.411773 0.151594 0)
(-0.452948 0.101866 0)
(-0.477889 0.0431933 0)
(-0.48443 -0.020752 0)
(-0.471279 -0.08544 0)
(-0.438281 -0.14543 0)
(-0.386764 -0.19457 0)
(-0.319903 -0.226548 0)
(-0.242998 -0.235836 0)
(-0.163362 -0.218989 0)
(-0.0897894 -0.176014 0)
(-0.0329806 -0.111504 0)
(-0.00513866 -0.0357244 0)
(-0.00716666 0.0614559 0)
(-0.0396389 0.16241 0)
(-0.10036 0.235089 0)
(-0.175377 0.278246 0)
(-0.255341 0.293608 0)
(-0.33405 0.28403 0)
(-0.406354 0.252696 0)
(-0.467951 0.202817 0)
(-0.515265 0.137691 0)
(-0.545301 0.0609795 0)
(-0.555618 -0.0229202 0)
(-0.544455 -0.108537 0)
(-0.511019 -0.18915 0)
(-0.45594 -0.256895 0)
(-0.381852 -0.30331 0)
(-0.293989 -0.320447 0)
(-0.200393 -0.302558 0)
(-0.11163 -0.248071 0)
(-0.0415501 -0.161368 0)
(-0.00659511 -0.0543252 0)
(-0.00820159 0.0835491 0)
(-0.0450018 0.215329 0)
(-0.113233 0.307188 0)
(-0.196728 0.359915 0)
(-0.284939 0.377184 0)
(-0.371252 0.36348 0)
(-0.45046 0.323226 0)
(-0.518385 0.260517 0)
(-0.571597 0.179271 0)
(-0.607132 0.0836374 0)
(-0.622343 -0.0214822 0)
(-0.614963 -0.129917 0)
(-0.583379 -0.233847 0)
(-0.527175 -0.323709 0)
(-0.447958 -0.388602 0)
(-0.350359 -0.417462 0)
(-0.242743 -0.401153 0)
(-0.137419 -0.335261 0)
(-0.0520174 -0.222974 0)
(-0.00846755 -0.0776904 0)
(-0.00922249 0.108401 0)
(-0.0501468 0.274384 0)
(-0.125268 0.386893 0)
(-0.216128 0.449339 0)
(-0.311036 0.467989 0)
(-0.403144 0.449467 0)
(-0.487442 0.399742 0)
(-0.560155 0.323906 0)
(-0.618277 0.226438 0)
(-0.659114 0.111771 0)
(-0.679995 -0.0150014 0)
(-0.678215 -0.147388 0)
(-0.651237 -0.276829 0)
(-0.59727 -0.392267 0)
(-0.516305 -0.480232 0)
(-0.411571 -0.525858 0)
(-0.290968 -0.515276 0)
(-0.168148 -0.439398 0)
(-0.0651069 -0.298535 0)
(-0.0109738 -0.107029 0)
(-0.0102966 0.135945 0)
(-0.0552701 0.339182 0)
(-0.136642 0.473254 0)
(-0.233396 0.544955 0)
(-0.332734 0.563981 0)
(-0.427834 0.539724 0)
(-0.514242 0.480063 0)
(-0.588967 0.391212 0)
(-0.64981 0.27814 0)
(-0.694706 0.145321 0)
(-0.721275 -0.00235936 0)
(-0.726595 -0.158604 0)
(-0.707264 -0.314694 0)
(-0.659885 -0.458584 0)
(-0.582205 -0.574413 0)
(-0.475009 -0.643024 0)
(-0.344418 -0.644313 0)
(-0.204401 -0.561993 0)
(-0.081564 -0.390655 0)
(-0.0143876 -0.143983 0)
(-0.0115776 0.166283 0)
(-0.0608185 0.409464 0)
(-0.147848 0.565122 0)
(-0.248536 0.644569 0)
(-0.349028 0.66211 0)
(-0.442941 0.63071 0)
(-0.526885 0.560589 0)
(-0.599167 0.459218 0)
(-0.65888 0.331969 0)
(-0.705059 0.183087 0)
(-0.736071 0.0168075 0)
(-0.749192 -0.161404 0)
(-0.740438 -0.343482 0)
(-0.704809 -0.517276 0)
(-0.637303 -0.665229 0)
(-0.53506 -0.763891 0)
(-0.400548 -0.785547 0)
(-0.246045 -0.703488 0)
(-0.102168 -0.502052 0)
(-0.0190915 -0.190683 0)
(-0.0134023 0.199905 0)
(-0.0677258 0.485307 0)
(-0.159948 0.661107 0)
(-0.261886 0.745099 0)
(-0.358822 0.757936 0)
(-0.445517 0.717188 0)
(-0.520389 0.635875 0)
(-0.583692 0.522824 0)
(-0.636377 0.383697 0)
(-0.679116 0.222237 0)
(-0.711574 0.0415775 0)
(-0.731818 -0.154334 0)
(-0.735851 -0.359072 0)
(-0.717438 -0.561675 0)
(-0.66869 -0.744271 0)
(-0.582022 -0.880002 0)
(-0.453917 -0.932838 0)
(-0.291697 -0.86207 0)
(-0.127716 -0.635057 0)
(-0.0256607 -0.249878 0)
(-0.0164626 0.23813 0)
(-0.077752 0.56741 0)
(-0.17478 0.759442 0)
(-0.274018 0.84214 0)
(-0.360542 0.845105 0)
(-0.431521 0.791737 0)
(-0.488249 0.698224 0)
(-0.533709 0.574717 0)
(-0.571278 0.426964 0)
(-0.603753 0.257923 0)
(-0.63263 0.0692383 0)
(-0.657437 -0.13728 0)
(-0.674989 -0.357867 0)
(-0.678677 -0.584339 0)
(-0.658241 -0.800654 0)
(-0.600889 -0.978728 0)
(-0.49479 -1.07503 0)
(-0.337765 -1.03187 0)
(-0.158881 -0.790682 0)
(-0.0349849 -0.325134 0)
(-0.0220984 0.283872 0)
(-0.0939007 0.657357 0)
(-0.194822 0.857441 0)
(-0.284839 0.929078 0)
(-0.350701 0.914526 0)
(-0.394189 0.844187 0)
(-0.42094 0.737421 0)
(-0.437471 0.605317 0)
(-0.449999 0.453308 0)
(-0.463689 0.283251 0)
(-0.482165 0.0950345 0)
(-0.506955 -0.112055 0)
(-0.536618 -0.337712 0)
(-0.565503 -0.578111 0)
(-0.582439 -0.821753 0)
(-0.570189 -1.04305 0)
(-0.507227 -1.19433 0)
(-0.37672 -1.20039 0)
(-0.195675 -0.96683 0)
(-0.0483753 -0.421049 0)
(-0.032705 0.342879 0)
(-0.120619 0.757423 0)
(-0.221824 0.949999 0)
(-0.290632 0.995402 0)
(-0.3201 0.953169 0)
(-0.320172 0.861115 0)
(-0.302509 0.740842 0)
(-0.277684 0.603321 0)
(-0.25467 0.452902 0)
(-0.240707 0.289959 0)
(-0.241321 0.112529 0)
(-0.260146 -0.0826118 0)
(-0.29819 -0.298842 0)
(-0.35233 -0.537743 0)
(-0.412941 -0.795035 0)
(-0.461044 -1.05262 0)
(-0.466484 -1.26542 0)
(-0.393871 -1.34531 0)
(-0.235631 -1.15497 0)
(-0.0673176 -0.543109 0)
(-0.0518211 0.425709 0)
(-0.162317 0.868688 0)
(-0.251473 1.02581 0)
(-0.276004 1.02363 0)
(-0.245191 0.942572 0)
(-0.181723 0.825831 0)
(-0.104234 0.694518 0)
(-0.0267742 0.55739 0)
(0.0400395 0.416493 0)
(0.0880974 0.270269 0)
(0.110995 0.115044 0)
(0.103629 -0.0543731 0)
(0.0624816 -0.24438 0)
(-0.0131129 -0.461793 0)
(-0.11812 -0.711083 0)
(-0.236735 -0.986707 0)
(-0.335482 -1.25616 0)
(-0.361408 -1.43125 0)
(-0.268647 -1.335 0)
(-0.0916242 -0.697475 0)
(-0.081835 0.551813 0)
(-0.215209 0.983975 0)
(-0.25676 1.05738 0)
(-0.194577 0.982803 0)
(-0.070985 0.85667 0)
(0.0765095 0.719249 0)
(0.224741 0.585669 0)
(0.359269 0.45938 0)
(0.470671 0.33875 0)
(0.552311 0.22003 0)
(0.598774 0.0983335 0)
(0.604932 -0.0323768 0)
(0.565632 -0.179823 0)
(0.476187 -0.354086 0)
(0.334551 -0.567282 0)
(0.147092 -0.829038 0)
(-0.0602218 -1.13048 0)
(-0.228421 -1.40656 0)
(-0.265484 -1.46675 0)
(-0.112789 -0.891078 0)
(-0.109711 0.747775 0)
(-0.23636 1.06462 0)
(-0.143156 0.981592 0)
(0.0710539 0.821632 0)
(0.316785 0.663842 0)
(0.554059 0.525925 0)
(0.765851 0.409592 0)
(0.944191 0.31067 0)
(1.08536 0.22358 0)
(1.1872 0.142996 0)
(1.24745 0.0639053 0)
(1.26273 -0.0190052 0)
(1.22792 -0.112374 0)
(1.13559 -0.22585 0)
(0.976406 -0.374246 0)
(0.742466 -0.578618 0)
(0.437012 -0.859299 0)
(0.0959861 -1.20367 0)
(-0.15407 -1.46774 0)
(-0.0928629 -1.10736 0)
(-0.0129623 0.938374 0)
(-0.0124633 0.978817 0)
(0.359056 0.715738 0)
(0.770289 0.512891 0)
(1.1167 0.371419 0)
(1.39797 0.270256 0)
(1.62326 0.196663 0)
(1.79907 0.141226 0)
(1.93072 0.0969453 0)
(2.02198 0.0589061 0)
(2.07453 0.0234904 0)
(2.0877 -0.0124632 0)
(2.05806 -0.052647 0)
(1.97832 -0.102659 0)
(1.83562 -0.172738 0)
(1.60969 -0.282785 0)
(1.27056 -0.468911 0)
(0.785949 -0.777736 0)
(0.258355 -1.17963 0)
(0.120818 -1.16453 0)
(1.04 0.509989 0)
(1.3435 0.450686 0)
(1.88302 0.281381 0)
(2.29842 0.172814 0)
(2.56148 0.108942 0)
(2.7366 0.0698873 0)
(2.85981 0.0453675 0)
(2.94699 0.0293625 0)
(3.00696 0.018141 0)
(3.04498 0.00946961 0)
(3.06376 0.00198538 0)
(3.06402 -0.00526368 0)
(3.04463 -0.0132652 0)
(3.00203 -0.0234425 0)
(2.9283 -0.0386933 0)
(2.80685 -0.0657918 0)
(2.59884 -0.120952 0)
(2.20769 -0.23833 0)
(1.58666 -0.451662 0)
(1.15762 -0.549972 0)
)
;

boundaryField
{
    movingWall
    {
        type            fixedValue;
        value           uniform (3.6 0 0);
    }
    fixedWalls
    {
        type            noSlip;
    }
    frontAndBack
    {
        type            empty;
    }
}


// ************************************************************************* //
