/*--------------------------------*- C++ -*----------------------------------*\
  =========                 |
  \\      /  F ield         | OpenFOAM: The Open Source CFD Toolbox
   \\    /   O peration     | Website:  https://openfoam.org
    \\  /    A nd           | Version:  8
     \\/     M anipulation  |
\*---------------------------------------------------------------------------*/
FoamFile
{
    version     2.0;
    format      ascii;
    class       volScalarField;
    location    "0.5";
    object      p;
}
// * * * * * * * * * * * * * * * * * * * * * * * * * * * * * * * * * * * * * //

dimensions      [0 2 -2 0 0 0 0];

internalField   nonuniform List<scalar> 
400
(
2.03974e-05
-0.024548
-0.0536598
-0.0755104
-0.0838436
-0.07602
-0.0516972
-0.0120222
0.0407156
0.103116
0.170624
0.237624
0.29781
0.344919
0.373774
0.381532
0.368893
0.341029
0.307922
0.283779
0.0244589
-0.000998955
-0.0237338
-0.0385718
-0.0429995
-0.035241
-0.0148835
0.0173666
0.059891
0.110136
0.164565
0.218746
0.267669
0.306366
0.330766
0.338681
0.330722
0.310682
0.284498
0.259974
0.0552835
0.020153
-0.004159
-0.0174702
-0.0210406
-0.0141815
0.00326483
0.0307506
0.0671194
0.110451
0.157906
0.205725
0.249473
0.28458
0.307123
0.314746
0.307565
0.288257
0.259497
0.225122
0.0809966
0.0330057
0.00325265
-0.0116682
-0.0162882
-0.0109063
0.00432442
0.0289184
0.0620762
0.102372
0.147441
0.193852
0.237253
0.272849
0.296183
0.304126
0.295973
0.273481
0.236945
0.188212
0.0933419
0.0324269
-0.00364878
-0.0211982
-0.0275812
-0.0238945
-0.0105005
0.0122344
0.0438904
0.0835229
0.129183
0.177631
0.224361
0.263997
0.291091
0.301252
0.292597
0.265912
0.219529
0.154335
0.0858465
0.0127416
-0.0296486
-0.0501267
-0.0585171
-0.056531
-0.044603
-0.022869
0.00871713
0.0497581
0.0987562
0.152647
0.206647
0.254533
0.289425
0.305109
0.297986
0.267564
0.210211
0.126465
0.0530113
-0.031339
-0.0796494
-0.102971
-0.113348
-0.112975
-0.102228
-0.0808774
-0.0482658
-0.00408837
0.0507657
0.113529
0.17916
0.240419
0.288555
0.314833
0.313124
0.280956
0.212159
0.107096
-0.0101639
-0.104767
-0.158359
-0.184144
-0.196282
-0.197403
-0.187733
-0.166526
-0.132319
-0.0838482
-0.0210898
0.0537927
0.135724
0.216441
0.284946
0.329145
0.339212
0.309409
0.229644
0.0997662
-0.1084
-0.212332
-0.270362
-0.297894
-0.311294
-0.313697
-0.305149
-0.284254
-0.248504
-0.195326
-0.123329
-0.0335453
0.0694071
0.176519
0.274344
0.34655
0.378049
0.357789
0.269219
0.110563
-0.246233
-0.358773
-0.420052
-0.447976
-0.461536
-0.464625
-0.457168
-0.437019
-0.400366
-0.342912
-0.261302
-0.154694
-0.0264233
0.114439
0.252202
0.365584
0.432389
0.433282
0.34107
0.149908
-0.428245
-0.549036
-0.611589
-0.637197
-0.6485
-0.650676
-0.643698
-0.624606
-0.588022
-0.527466
-0.436947
-0.312819
-0.155994
0.0256176
0.21495
0.385645
0.506632
0.546425
0.460824
0.235061
-0.659841
-0.788944
-0.848997
-0.866878
-0.870986
-0.868657
-0.860162
-0.841644
-0.805871
-0.743709
-0.645848
-0.504856
-0.317846
-0.0898268
0.162558
0.408889
0.608243
0.712677
0.652109
0.394004
-0.949338
-1.08666
-1.13646
-1.1362
-1.12389
-1.1102
-1.09582
-1.07576
-1.04052
-0.977811
-0.874381
-0.718131
-0.501002
-0.223021
0.102354
0.443382
0.750202
0.954805
0.950323
0.671897
-1.31301
-1.45549
-1.47872
-1.44125
-1.39682
-1.36035
-1.33255
-1.30655
-1.26983
-1.20634
-1.09833
-0.9284
-0.682239
-0.352877
0.052867
0.506705
0.95403
1.306
1.40828
1.14245
-1.78658
-1.91878
-1.88073
-1.77301
-1.67216
-1.59644
-1.54455
-1.50605
-1.46407
-1.39786
-1.28471
-1.10155
-0.827215
-0.446245
0.0446761
0.627292
1.25101
1.81175
2.10271
1.92599
-2.44877
-2.51686
-2.34568
-2.11406
-1.92308
-1.78763
-1.69959
-1.64154
-1.59004
-1.51837
-1.39829
-1.20093
-0.898102
-0.465001
0.114801
0.840566
1.67913
2.52675
3.13567
3.20828
-3.46975
-3.3145
-2.87239
-2.4385
-2.11544
-1.89883
-1.76476
-1.68302
-1.62011
-1.54185
-1.41395
-1.20175
-0.869861
-0.383478
0.289925
1.17514
2.27273
3.50581
4.63354
5.26987
-5.27365
-4.39825
-3.42541
-2.69309
-2.19865
-1.88832
-1.70947
-1.61004
-1.54224
-1.46328
-1.33307
-1.11179
-0.757531
-0.224308
0.540523
1.59776
3.00292
4.75518
6.7713
8.68928
-9.06295
-5.79704
-3.72257
-2.62929
-1.99796
-1.64068
-1.46303
-1.38545
-1.34512
-1.29309
-1.18677
-0.98429
-0.64105
-0.102611
0.703155
1.88174
3.5811
6.00606
9.6637
14.784
-16.2609
-7.13956
-3.16588
-1.8517
-1.28952
-1.03551
-0.966358
-0.988903
-1.03557
-1.05961
-1.02272
-0.887552
-0.612354
-0.14584
0.586148
1.7126
3.49076
6.51054
12.5261
23.7046
)
;

boundaryField
{
    movingWall
    {
        type            zeroGradient;
    }
    fixedWalls
    {
        type            zeroGradient;
    }
    frontAndBack
    {
        type            empty;
    }
}


// ************************************************************************* //
