/*--------------------------------*- C++ -*----------------------------------*\
  =========                 |
  \\      /  F ield         | OpenFOAM: The Open Source CFD Toolbox
   \\    /   O peration     | Website:  https://openfoam.org
    \\  /    A nd           | Version:  8
     \\/     M anipulation  |
\*---------------------------------------------------------------------------*/
FoamFile
{
    version     2.0;
    format      ascii;
    class       surfaceScalarField;
    location    "0.5";
    object      phi;
}
// * * * * * * * * * * * * * * * * * * * * * * * * * * * * * * * * * * * * * //

dimensions      [0 3 -1 0 0 0 0];

internalField   nonuniform List<scalar> 
760
(
5.38636e-08
-5.40348e-08
-1.08181e-07
1.62044e-07
-4.95038e-07
3.86857e-07
-1.03396e-06
5.38926e-07
-1.64694e-06
6.12974e-07
-2.26472e-06
6.17779e-07
-2.8284e-06
5.63679e-07
-3.28813e-06
4.59727e-07
-3.60196e-06
3.13835e-07
-3.7367e-06
1.34734e-07
-3.67096e-06
-6.57304e-08
-3.40002e-06
-2.70947e-07
-2.94074e-06
-4.59279e-07
-2.33522e-06
-6.05513e-07
-1.651e-06
-6.84222e-07
-9.76195e-07
-6.7481e-07
-4.0855e-07
-5.67646e-07
-3.83022e-08
-3.70247e-07
7.98404e-08
-1.18141e-07
7.98413e-08
-1.59099e-07
1.05064e-07
-7.91514e-07
7.94459e-07
-1.85798e-06
1.45332e-06
-3.22532e-06
1.90626e-06
-4.73731e-06
2.12496e-06
-6.24231e-06
2.12278e-06
-7.60358e-06
1.92495e-06
-8.7025e-06
1.55865e-06
-9.44054e-06
1.05188e-06
-9.74318e-06
4.37377e-07
-9.56686e-06
-2.42058e-07
-8.9078e-06
-9.30007e-07
-7.81068e-06
-1.55639e-06
-6.37368e-06
-2.04252e-06
-4.74644e-06
-2.31146e-06
-3.11786e-06
-2.30339e-06
-1.69132e-06
-1.99419e-06
-6.47715e-07
-1.41386e-06
-9.6573e-08
-6.69285e-07
-1.67306e-08
-4.1242e-07
5.17484e-07
-1.55126e-06
1.9333e-06
-3.26447e-06
3.16652e-06
-5.35388e-06
3.99568e-06
-7.60705e-06
4.37813e-06
-9.81878e-06
4.33451e-06
-1.1802e-05
3.90821e-06
-1.33934e-05
3.14996e-06
-1.44571e-05
2.11564e-06
-1.48919e-05
8.72128e-07
-1.46394e-05
-4.94555e-07
-1.36956e-05
-1.87376e-06
-1.21212e-05
-3.13078e-06
-1.00476e-05
-4.11617e-06
-7.67452e-06
-4.68452e-06
-5.25533e-06
-4.72258e-06
-3.06637e-06
-4.18315e-06
-1.36224e-06
-3.11798e-06
-3.22118e-07
-1.70941e-06
-3.38848e-07
-6.43665e-07
1.16115e-06
-2.27017e-06
3.55981e-06
-4.59852e-06
5.49487e-06
-7.35224e-06
6.7494e-06
-1.02654e-05
7.29132e-06
-1.30919e-05
7.16096e-06
-1.56104e-05
6.42675e-06
-1.76283e-05
5.1678e-06
-1.89849e-05
3.47231e-06
-1.9559e-05
1.44619e-06
-1.92779e-05
-7.75587e-07
-1.81307e-05
-3.02097e-06
-1.61803e-05
-5.08124e-06
-1.35729e-05
-6.72354e-06
-1.05395e-05
-7.71796e-06
-7.38285e-06
-7.8792e-06
-4.44771e-06
-7.11828e-06
-2.07286e-06
-5.49283e-06
-5.34492e-07
-3.24778e-06
-8.73341e-07
-8.50443e-07
2.01159e-06
-2.93149e-06
5.64085e-06
-5.83766e-06
8.40104e-06
-9.21048e-06
1.01222e-05
-1.27317e-05
1.08126e-05
-1.61209e-05
1.05502e-05
-1.91328e-05
9.43862e-06
-2.15553e-05
7.59027e-06
-2.32105e-05
5.12755e-06
-2.39599e-05
2.19552e-06
-2.37133e-05
-1.02216e-06
-2.24431e-05
-4.29114e-06
-2.02e-05
-7.32433e-06
-1.71284e-05
-9.79518e-06
-1.34753e-05
-1.1371e-05
-9.58651e-06
-1.1768e-05
-5.88031e-06
-1.08245e-05
-2.79867e-06
-8.57447e-06
-7.40876e-07
-5.30558e-06
-1.61422e-06
-1.03722e-06
3.04881e-06
-3.53771e-06
8.14134e-06
-6.98111e-06
1.18444e-05
-1.09295e-05
1.40706e-05
-1.50153e-05
1.48984e-05
-1.89299e-05
1.44648e-05
-2.24117e-05
1.29204e-05
-2.52372e-05
1.04159e-05
-2.7217e-05
7.10731e-06
-2.81963e-05
3.17482e-06
-2.80632e-05
-1.15524e-06
-2.67628e-05
-5.59152e-06
-2.43176e-05
-9.76953e-06
-2.08514e-05
-1.32614e-05
-1.66112e-05
-1.56112e-05
-1.19774e-05
-1.64019e-05
-7.44857e-06
-1.53533e-05
-3.59238e-06
-1.24306e-05
-9.62579e-07
-7.93538e-06
-2.5768e-06
-1.20765e-06
4.25646e-06
-4.09292e-06
1.10266e-05
-8.02896e-06
1.57805e-05
-1.2503e-05
1.85446e-05
-1.71036e-05
1.9499e-05
-2.15009e-05
1.88621e-05
-2.54257e-05
1.68452e-05
-2.86518e-05
1.36419e-05
-3.09843e-05
9.43976e-06
-3.22551e-05
4.44566e-06
-3.23274e-05
-1.08292e-06
-3.11091e-05
-6.8098e-06
-2.85775e-05
-1.23012e-05
-2.48134e-05
-1.70255e-05
-2.00405e-05
-2.03841e-05
-1.46577e-05
-2.17847e-05
-9.24418e-06
-2.07668e-05
-4.51615e-06
-1.71587e-05
-1.22393e-06
-1.12276e-05
-3.80072e-06
-1.36401e-06
5.62047e-06
-4.59925e-06
1.42618e-05
-8.97644e-06
2.01577e-05
-1.39122e-05
2.34804e-05
-1.89577e-05
2.45445e-05
-2.37712e-05
2.36756e-05
-2.80871e-05
2.11611e-05
-3.16877e-05
1.72425e-05
-3.43827e-05
1.21347e-05
-3.59972e-05
6.0602e-06
-3.63705e-05
-7.0965e-07
-3.53667e-05
-7.81365e-06
-3.29014e-05
-1.47664e-05
-2.89862e-05
-2.09408e-05
-2.37881e-05
-2.55822e-05
-1.76931e-05
-2.78796e-05
-1.13467e-05
-2.71132e-05
-5.63189e-06
-2.28735e-05
-1.55019e-06
-1.53093e-05
-5.35092e-06
-1.50851e-06
7.12898e-06
-5.05891e-06
1.78122e-05
-9.81612e-06
2.49149e-05
-1.51272e-05
2.87915e-05
-2.05135e-05
2.99308e-05
-2.56342e-05
2.87963e-05
-3.0242e-05
2.57689e-05
-3.41434e-05
2.1144e-05
-3.71678e-05
1.51592e-05
-3.91465e-05
8.03883e-06
-3.99027e-05
4.66142e-08
-3.92571e-05
-8.45927e-06
-3.70516e-05
-1.69719e-05
-3.32004e-05
-2.4792e-05
-2.77696e-05
-3.1013e-05
-2.10805e-05
-3.45687e-05
-1.3805e-05
-3.43887e-05
-6.99502e-06
-2.96835e-05
-1.9676e-06
-2.03367e-05
-7.31852e-06
-1.64673e-06
8.77571e-06
-5.48137e-06
2.16469e-05
-1.05465e-05
2.998e-05
-1.61157e-05
3.43607e-05
-2.169e-05
3.55051e-05
-2.6946e-05
3.40523e-05
-3.16752e-05
3.0498e-05
-3.57295e-05
2.51983e-05
-3.89794e-05
1.84091e-05
-4.12826e-05
1.0342e-05
-4.24643e-05
1.22832e-06
-4.23123e-05
-8.61122e-06
-4.05926e-05
-1.86916e-05
-3.70981e-05
-2.82865e-05
-3.1743e-05
-3.63681e-05
-2.4708e-05
-4.16037e-05
-1.6614e-05
-4.24827e-05
-8.64817e-06
-3.76493e-05
-2.50465e-06
-2.64802e-05
-9.82316e-06
-1.79343e-06
1.05692e-05
-5.89487e-06
2.57483e-05
-1.11851e-05
3.52702e-05
-1.68546e-05
4.00302e-05
-2.23978e-05
4.10483e-05
-2.75333e-05
3.91879e-05
-3.21182e-05
3.50829e-05
-3.60772e-05
2.91573e-05
-3.9349e-05
2.16809e-05
-4.18457e-05
1.28386e-05
-4.34225e-05
2.80519e-06
-4.38595e-05
-8.17427e-06
-4.28603e-05
-1.96907e-05
-4.00869e-05
-3.10599e-05
-3.52529e-05
-4.12021e-05
-2.83031e-05
-4.85536e-05
-1.96807e-05
-5.11051e-05
-1.06109e-05
-4.67191e-05
-3.19428e-06
-3.38968e-05
-1.30174e-05
-1.98195e-06
1.25511e-05
-6.36253e-06
3.01289e-05
-1.17833e-05
4.0691e-05
-1.73392e-05
4.5586e-05
-2.25439e-05
4.6253e-05
-2.71955e-05
4.38395e-05
-3.12532e-05
3.91406e-05
-3.4747e-05
3.26511e-05
-3.77145e-05
2.46484e-05
-4.01547e-05
1.52788e-05
-4.19894e-05
4.63984e-06
-4.30297e-05
-7.13391e-06
-4.29531e-05
-1.97674e-05
-4.13065e-05
-3.27065e-05
-3.7575e-05
-4.49336e-05
-3.13676e-05
-5.47609e-05
-2.27733e-05
-5.96994e-05
-1.286e-05
-5.66324e-05
-4.07672e-06
-4.26801e-05
-1.70942e-05
-2.27939e-06
1.48305e-05
-7.00129e-06
3.48508e-05
-1.24338e-05
4.61236e-05
-1.75747e-05
5.07269e-05
-2.20118e-05
5.06901e-05
-2.56825e-05
4.75102e-05
-2.86959e-05
4.2154e-05
-3.12232e-05
3.51784e-05
-3.34307e-05
2.68559e-05
-3.54342e-05
1.72823e-05
-3.72591e-05
6.46477e-06
-3.8797e-05
-5.596e-06
-3.97568e-05
-1.88076e-05
-3.96245e-05
-3.28388e-05
-3.7673e-05
-4.68851e-05
-3.31044e-05
-5.93295e-05
-2.54469e-05
-6.73569e-05
-1.52916e-05
-6.67877e-05
-5.20147e-06
-5.27703e-05
-2.22956e-05
-2.81074e-06
1.76412e-05
-7.99585e-06
4.00359e-05
-1.32471e-05
5.13749e-05
-1.75165e-05
5.49962e-05
-2.05802e-05
5.37539e-05
-2.26088e-05
4.95388e-05
-2.39215e-05
4.34667e-05
-2.48639e-05
3.61208e-05
-2.57496e-05
2.77416e-05
-2.68275e-05
1.83602e-05
-2.82526e-05
7.88987e-06
-3.00423e-05
-3.80632e-06
-3.20095e-05
-1.68404e-05
-3.36741e-05
-3.11742e-05
-3.41838e-05
-4.63754e-05
-3.23413e-05
-6.1172e-05
-2.69362e-05
-7.2762e-05
-1.76466e-05
-7.60773e-05
-6.62059e-06
-6.37963e-05
-2.89162e-05
-3.78988e-06
2.14311e-05
-9.57514e-06
4.58212e-05
-1.42335e-05
5.60332e-05
-1.68797e-05
5.76424e-05
-1.77015e-05
5.45756e-05
-1.72372e-05
4.90745e-05
-1.60772e-05
4.23066e-05
-1.47566e-05
3.48002e-05
-1.37283e-05
2.67133e-05
-1.33614e-05
1.79933e-05
-1.39369e-05
8.46542e-06
-1.56205e-05
-2.12276e-06
-1.83948e-05
-1.4066e-05
-2.19369e-05
-2.76321e-05
-2.54406e-05
-4.28718e-05
-2.74576e-05
-5.9155e-05
-2.59956e-05
-7.42241e-05
-1.93531e-05
-8.27197e-05
-8.3429e-06
-7.48065e-05
-3.72591e-05
-5.52035e-06
2.69515e-05
-1.18297e-05
5.21305e-05
-1.49176e-05
5.91211e-05
-1.46501e-05
5.7375e-05
-1.20044e-05
5.19298e-05
-8.03194e-06
4.51021e-05
-3.61354e-06
3.78882e-05
5.64465e-07
3.06222e-05
3.96952e-06
2.33083e-05
6.17222e-06
1.57906e-05
6.81426e-06
7.82337e-06
5.60441e-06
-9.12905e-07
2.36271e-06
-1.08243e-05
-2.8605e-06
-2.24089e-05
-9.54197e-06
-3.61903e-05
-1.63165e-05
-5.23804e-05
-2.06546e-05
-6.9886e-05
-1.91976e-05
-8.41768e-05
-1.01587e-05
-8.38453e-05
-4.74178e-05
-8.21261e-06
3.51641e-05
-1.39797e-05
5.78976e-05
-1.32634e-05
5.84049e-05
-7.97651e-06
5.20881e-05
-3.33378e-07
4.42867e-05
8.09535e-06
3.66734e-05
1.62703e-05
2.97133e-05
2.35085e-05
2.3384e-05
2.93361e-05
1.74807e-05
3.33815e-05
1.17452e-05
3.5307e-05
5.89791e-06
3.47711e-05
-3.76964e-07
3.14356e-05
-7.48884e-06
2.5026e-05
-1.59993e-05
1.55531e-05
-2.67174e-05
3.79977e-06
-4.06271e-05
-7.85753e-06
-5.82287e-05
-1.47266e-05
-7.73077e-05
-1.11901e-05
-8.73818e-05
-5.8608e-05
-1.1118e-05
4.62821e-05
-1.19875e-05
5.87671e-05
-3.0238e-06
4.94411e-05
9.98172e-06
3.90826e-05
2.37355e-05
3.0533e-05
3.66944e-05
2.37144e-05
4.81218e-05
1.8286e-05
5.76571e-05
1.38487e-05
6.50996e-05
1.00382e-05
7.02847e-05
6.56006e-06
7.30133e-05
3.16926e-06
7.30057e-05
-3.69398e-07
6.98662e-05
-4.34933e-06
6.30636e-05
-9.19669e-06
5.20005e-05
-1.56543e-05
3.63666e-05
-2.49932e-05
1.71885e-05
-3.90507e-05
-1.09327e-06
-5.90259e-05
-8.96761e-06
-7.95074e-05
-6.75756e-05
-6.95418e-06
5.32363e-05
9.12649e-06
4.26864e-05
3.18048e-05
2.67628e-05
5.29714e-05
1.7916e-05
7.09863e-05
1.25181e-05
8.58151e-05
8.88555e-06
9.77361e-05
6.36497e-06
0.00010705
4.53521e-06
0.000113982
3.10556e-06
0.000118653
1.889e-06
0.000121062
7.60777e-07
0.000121076
-3.83811e-07
0.000118378
-1.6508e-06
0.000112393
-3.21217e-06
0.000102144
-5.40492e-06
8.61379e-05
-8.98727e-06
6.27825e-05
-1.56953e-05
3.25885e-05
-2.8832e-05
4.35458e-06
-5.12735e-05
-6.3221e-05
5.32363e-05
9.59227e-05
0.000122686
0.000140601
0.00015312
0.000162005
0.00016837
0.000172905
0.000176011
0.0001779
0.000178661
0.000178277
0.000176626
0.000173414
0.000168009
0.000159022
0.000143326
0.000114494
6.3221e-05
)
;

boundaryField
{
    movingWall
    {
        type            calculated;
        value           uniform 0;
    }
    fixedWalls
    {
        type            calculated;
        value           uniform 0;
    }
    frontAndBack
    {
        type            empty;
        value           nonuniform List<scalar> 0();
    }
}


// ************************************************************************* //
