/*--------------------------------*- C++ -*----------------------------------*\
  =========                 |
  \\      /  F ield         | OpenFOAM: The Open Source CFD Toolbox
   \\    /   O peration     | Website:  https://openfoam.org
    \\  /    A nd           | Version:  8
     \\/     M anipulation  |
\*---------------------------------------------------------------------------*/
FoamFile
{
    version     2.0;
    format      ascii;
    class       surfaceScalarField;
    location    "0.5";
    object      phi;
}
// * * * * * * * * * * * * * * * * * * * * * * * * * * * * * * * * * * * * * //

dimensions      [0 3 -1 0 0 0 0];

internalField   nonuniform List<scalar> 
760
(
4.91985e-08
-4.93297e-08
-9.66548e-08
1.45852e-07
-4.46692e-07
3.50037e-07
-9.35424e-07
4.88732e-07
-1.49172e-06
5.563e-07
-2.052e-06
5.60274e-07
-2.56211e-06
5.10113e-07
-2.9766e-06
4.14494e-07
-3.25784e-06
2.81231e-07
-3.37664e-06
1.188e-07
-3.31485e-06
-6.17914e-08
-3.0692e-06
-2.45643e-07
-2.65547e-06
-4.13736e-07
-2.11135e-06
-5.44111e-07
-1.49673e-06
-6.14624e-07
-8.89603e-07
-6.07126e-07
-3.76923e-07
-5.12681e-07
-3.99336e-08
-3.36992e-07
7.03858e-08
-1.10323e-07
7.03836e-08
-1.4249e-07
9.3161e-08
-7.12762e-07
7.16123e-07
-1.67723e-06
1.3145e-06
-2.91581e-06
1.72731e-06
-4.28617e-06
1.92665e-06
-5.64945e-06
1.92356e-06
-6.88053e-06
1.74119e-06
-7.87155e-06
1.40552e-06
-8.53402e-06
9.437e-07
-8.80216e-06
3.86942e-07
-8.63866e-06
-2.25289e-07
-8.04196e-06
-8.42351e-07
-7.05326e-06
-1.40243e-06
-5.76068e-06
-1.8367e-06
-4.29738e-06
-2.07793e-06
-2.83114e-06
-2.07336e-06
-1.54323e-06
-1.80058e-06
-5.96399e-07
-1.28382e-06
-9.16869e-08
-6.15034e-07
-2.13063e-08
-3.70477e-07
4.63638e-07
-1.39762e-06
1.74327e-06
-2.94658e-06
2.86346e-06
-4.8384e-06
3.61913e-06
-6.8794e-06
3.96765e-06
-8.88177e-06
3.92593e-06
-1.06745e-05
3.53396e-06
-1.21092e-05
2.84021e-06
-1.3064e-05
1.8985e-06
-1.34493e-05
7.72166e-07
-1.32149e-05
-4.59608e-07
-1.23599e-05
-1.69741e-06
-1.09402e-05
-2.82217e-06
-9.07399e-06
-3.70286e-06
-6.93961e-06
-4.21231e-06
-4.76219e-06
-4.25078e-06
-2.78781e-06
-3.77496e-06
-1.24488e-06
-2.82675e-06
-2.97232e-07
-1.56268e-06
-3.18541e-07
-5.78483e-07
1.04212e-06
-2.04591e-06
3.2107e-06
-4.1515e-06
4.96905e-06
-6.64505e-06
6.11268e-06
-9.28379e-06
6.60639e-06
-1.18421e-05
6.48425e-06
-1.41177e-05
5.80954e-06
-1.59354e-05
4.65791e-06
-1.71511e-05
3.11424e-06
-1.76577e-05
1.27872e-06
-1.7393e-05
-7.24308e-07
-1.63504e-05
-2.74001e-06
-1.4589e-05
-4.58351e-06
-1.22414e-05
-6.0505e-06
-9.51373e-06
-6.93998e-06
-6.67525e-06
-7.08927e-06
-4.03211e-06
-6.41809e-06
-1.88688e-06
-4.97198e-06
-4.89974e-07
-2.95958e-06
-8.08514e-07
-7.64843e-07
1.80696e-06
-2.64397e-06
5.08983e-06
-5.27428e-06
7.59936e-06
-8.33048e-06
9.16888e-06
-1.15212e-05
9.79716e-06
-1.45889e-05
9.55194e-06
-1.73087e-05
8.52931e-06
-1.94878e-05
6.83696e-06
-2.09665e-05
4.59301e-06
-2.16229e-05
1.93512e-06
-2.13802e-05
-9.66969e-07
-2.02185e-05
-3.90177e-06
-1.81874e-05
-6.61454e-06
-1.54193e-05
-8.81864e-06
-1.21358e-05
-1.02235e-05
-8.64375e-06
-1.05813e-05
-5.31373e-06
-9.74811e-06
-2.53819e-06
-7.74752e-06
-6.76222e-07
-4.82155e-06
-1.48473e-06
-9.34264e-07
2.74122e-06
-3.19594e-06
7.3515e-06
-6.31734e-06
1.07208e-05
-9.8996e-06
1.27511e-05
-1.36051e-05
1.35026e-05
-1.7149e-05
1.30959e-05
-2.0291e-05
1.16713e-05
-2.28277e-05
9.37362e-06
-2.45891e-05
6.35438e-06
-2.54396e-05
2.78565e-06
-2.52845e-05
-1.12213e-06
-2.40812e-05
-5.10498e-06
-2.1857e-05
-8.83874e-06
-1.8728e-05
-1.19476e-05
-1.49174e-05
-1.40342e-05
-1.0763e-05
-1.47357e-05
-6.7049e-06
-1.38062e-05
-3.24412e-06
-1.12083e-05
-8.74504e-07
-7.19117e-06
-2.35924e-06
-1.09079e-06
3.83201e-06
-3.70752e-06
9.96823e-06
-7.28403e-06
1.42973e-05
-1.13511e-05
1.68182e-05
-1.55289e-05
1.76804e-05
-1.95117e-05
1.70787e-05
-2.30511e-05
1.52107e-05
-2.59407e-05
1.22633e-05
-2.80063e-05
8.41993e-06
-2.91012e-05
3.88054e-06
-2.91099e-05
-1.11344e-06
-2.79593e-05
-6.25552e-06
-2.56394e-05
-1.11587e-05
-2.22312e-05
-1.53558e-05
-1.794e-05
-1.83254e-05
-1.31211e-05
-1.95546e-05
-8.28423e-06
-1.86431e-05
-4.05801e-06
-1.54345e-05
-1.10582e-06
-1.01434e-05
-3.46506e-06
-1.23723e-06
5.06925e-06
-4.18263e-06
1.29136e-05
-8.1732e-06
1.82878e-05
-1.26719e-05
2.13169e-05
-1.72619e-05
2.22704e-05
-2.16251e-05
2.14419e-05
-2.5515e-05
1.91006e-05
-2.87327e-05
1.5481e-05
-3.11083e-05
1.07955e-05
-3.24902e-05
5.26237e-06
-3.2743e-05
-8.60631e-07
-3.17571e-05
-7.2414e-06
-2.94709e-05
-1.34449e-05
-2.5908e-05
-1.89187e-05
-2.12272e-05
-2.30061e-05
-1.57754e-05
-2.50065e-05
-1.01201e-05
-2.42984e-05
-5.03286e-06
-2.05218e-05
-1.39187e-06
-1.37843e-05
-4.85693e-06
-1.3763e-06
6.44556e-06
-4.62504e-06
1.61624e-05
-8.98066e-06
2.26434e-05
-1.38379e-05
2.61741e-05
-1.87496e-05
2.71821e-05
-2.33964e-05
2.60887e-05
-2.75479e-05
2.32521e-05
-3.1027e-05
1.89601e-05
-3.3682e-05
1.34505e-05
-3.53672e-05
6.94762e-06
-3.59346e-05
-2.93208e-07
-3.52375e-05
-7.93856e-06
-3.31514e-05
-1.5531e-05
-2.96176e-05
-2.24524e-05
-2.4711e-05
-2.79127e-05
-1.87259e-05
-3.09916e-05
-1.22556e-05
-3.07687e-05
-6.21628e-06
-2.65611e-05
-1.75505e-06
-1.82456e-05
-6.61198e-06
-1.51362e-06
7.95917e-06
-5.04443e-06
1.96932e-05
-9.70623e-06
2.73052e-05
-1.48206e-05
3.12885e-05
-1.99186e-05
3.22801e-05
-2.46955e-05
3.08656e-05
-2.89559e-05
2.75125e-05
-3.25645e-05
2.25687e-05
-3.5407e-05
1.62931e-05
-3.73622e-05
8.90282e-06
-3.82839e-05
6.28462e-07
-3.79964e-05
-8.22601e-06
-3.63091e-05
-1.72183e-05
-3.30586e-05
-2.57029e-05
-2.81906e-05
-3.27807e-05
-2.18827e-05
-3.72995e-05
-1.46893e-05
-3.79621e-05
-7.64558e-06
-3.36048e-05
-2.21974e-06
-2.36714e-05
-8.83171e-06
-1.66286e-06
9.62204e-06
-5.46648e-06
2.34968e-05
-1.03646e-05
3.22034e-05
-1.5596e-05
3.65199e-05
-2.06828e-05
3.73669e-05
-2.53585e-05
3.55414e-05
-2.94889e-05
3.16429e-05
-3.30059e-05
2.60857e-05
-3.58581e-05
1.91452e-05
-3.79729e-05
1.10176e-05
-3.923e-05
1.88562e-06
-3.9445e-05
-8.01102e-06
-3.837e-05
-1.82934e-05
-3.57255e-05
-2.83475e-05
-3.12832e-05
-3.7223e-05
-2.5021e-05
-4.35616e-05
-1.73482e-05
-4.56349e-05
-9.34006e-06
-4.16129e-05
-2.81444e-06
-3.0197e-05
-1.16461e-05
-1.8542e-06
1.14762e-05
-5.94669e-06
2.75893e-05
-1.09973e-05
3.7254e-05
-1.61499e-05
4.16725e-05
-2.09434e-05
4.21604e-05
-2.5186e-05
3.97839e-05
-2.88395e-05
3.52964e-05
-3.19345e-05
2.91807e-05
-3.45108e-05
2.17214e-05
-3.65737e-05
1.30806e-05
-3.806e-05
3.37189e-06
-3.88085e-05
-7.26246e-06
-3.8542e-05
-1.85599e-05
-3.68739e-05
-3.00156e-05
-3.33723e-05
-4.07246e-05
-2.7725e-05
-4.92089e-05
-2.00447e-05
-5.33153e-05
-1.12858e-05
-5.03718e-05
-3.57479e-06
-3.79081e-05
-1.52209e-05
-2.14786e-06
1.36241e-05
-6.58642e-06
3.20279e-05
-1.16762e-05
4.23438e-05
-1.6467e-05
4.64632e-05
-2.0567e-05
4.62605e-05
-2.39172e-05
4.31341e-05
-2.66221e-05
3.80013e-05
-2.88454e-05
3.14041e-05
-3.07456e-05
2.36216e-05
-3.2433e-05
1.47679e-05
-3.39335e-05
4.87244e-06
-3.51509e-05
-6.04507e-06
-3.58258e-05
-1.7885e-05
-3.55055e-05
-3.03358e-05
-3.35608e-05
-4.26694e-05
-2.93189e-05
-5.34508e-05
-2.24125e-05
-6.02217e-05
-1.34054e-05
-5.93788e-05
-4.54655e-06
-4.6767e-05
-1.97675e-05
-2.65554e-06
1.62796e-05
-7.54336e-06
3.69157e-05
-1.24795e-05
4.72799e-05
-1.64711e-05
5.04549e-05
-1.93066e-05
4.90959e-05
-2.11493e-05
4.49769e-05
-2.23043e-05
3.91562e-05
-2.30994e-05
3.21992e-05
-2.38289e-05
2.43512e-05
-2.47225e-05
1.56615e-05
-2.59181e-05
6.06808e-06
-2.74237e-05
-4.53947e-06
-2.90598e-05
-1.62489e-05
-3.0386e-05
-2.90096e-05
-3.06423e-05
-4.24131e-05
-2.87881e-05
-5.53049e-05
-2.38081e-05
-6.52017e-05
-1.5495e-05
-6.76919e-05
-5.78245e-06
-5.64795e-05
-2.55499e-05
-3.56713e-06
1.98468e-05
-9.00551e-06
4.23541e-05
-1.33768e-05
5.16512e-05
-1.58481e-05
5.29262e-05
-1.65993e-05
4.98471e-05
-1.61439e-05
4.45215e-05
-1.5043e-05
3.80554e-05
-1.38015e-05
3.09577e-05
-1.28405e-05
2.33901e-05
-1.24956e-05
1.53167e-05
-1.30137e-05
6.58614e-06
-1.45278e-05
-3.02538e-06
-1.6998e-05
-1.37788e-05
-2.01047e-05
-2.59029e-05
-2.31013e-05
-3.94166e-05
-2.4694e-05
-5.37122e-05
-2.31574e-05
-6.67383e-05
-1.7086e-05
-7.37633e-05
-7.30678e-06
-6.62587e-05
-3.28567e-05
-5.14686e-06
2.49936e-05
-1.10161e-05
4.82233e-05
-1.38733e-05
5.45083e-05
-1.36019e-05
5.26549e-05
-1.11258e-05
4.7371e-05
-7.44178e-06
4.08374e-05
-3.37877e-06
3.39924e-05
4.22215e-07
2.71567e-05
3.47233e-06
2.034e-05
5.38667e-06
1.34024e-05
5.85398e-06
6.11884e-06
4.63321e-06
-1.8046e-06
1.59373e-06
-1.07393e-05
-3.1757e-06
-2.11334e-05
-9.15506e-06
-3.34372e-05
-1.50826e-05
-4.77847e-05
-1.8709e-05
-6.31119e-05
-1.71418e-05
-7.53304e-05
-8.96615e-06
-7.44344e-05
-4.18229e-05
-7.55627e-06
3.25499e-05
-1.2798e-05
5.34651e-05
-1.20404e-05
5.37507e-05
-7.08012e-06
4.76946e-05
9.32685e-09
4.02815e-05
7.76112e-06
3.30856e-05
1.52056e-05
2.65479e-05
2.17181e-05
2.06442e-05
2.68748e-05
1.51833e-05
3.03519e-05
9.92523e-06
3.18615e-05
4.60919e-06
3.11188e-05
-1.06184e-06
2.78463e-05
-7.46683e-06
2.18398e-05
-1.51269e-05
1.31685e-05
-2.47659e-05
2.60859e-06
-3.72249e-05
-7.66023e-06
-5.28431e-05
-1.34821e-05
-6.95085e-05
-1.00259e-05
-7.78906e-05
-5.18488e-05
-1.00508e-05
4.26007e-05
-1.06072e-05
5.40214e-05
-2.18302e-06
4.53265e-05
9.87421e-06
3.56374e-05
2.25199e-05
2.76359e-05
3.43297e-05
2.12758e-05
4.46385e-05
1.62391e-05
5.31343e-05
1.21484e-05
5.96554e-05
8.66224e-06
6.4074e-05
5.50659e-06
6.62304e-05
2.45279e-06
6.58907e-05
-7.22151e-07
6.27149e-05
-4.29103e-06
5.62467e-05
-8.65862e-06
4.59872e-05
-1.45065e-05
3.17301e-05
-2.29677e-05
1.44964e-05
-3.56093e-05
-1.67034e-06
-5.33418e-05
-8.30707e-06
-7.12539e-05
-6.01558e-05
-5.9219e-06
4.85226e-05
9.0609e-06
3.90386e-05
2.99494e-05
2.4438e-05
4.93435e-05
1.62433e-05
6.57346e-05
1.12448e-05
7.91072e-05
7.9032e-06
8.97457e-05
5.60062e-06
9.79536e-05
3.94056e-06
0.000103962
2.65347e-06
0.000107902
1.56712e-06
0.000109788
5.66534e-07
0.000109512
-4.46461e-07
0.000106792
-1.57098e-06
0.000101107
-2.97297e-06
9.15693e-05
-4.96911e-06
7.68563e-05
-8.25475e-06
5.56141e-05
-1.43671e-05
2.84435e-05
-2.61712e-05
3.37497e-06
-4.61854e-05
-5.67809e-05
4.85226e-05
8.75613e-05
0.000111999
0.000128243
0.000139487
0.000147391
0.000152991
0.000156932
0.000159585
0.000161152
0.000161719
0.000161272
0.000159701
0.000156728
0.000151759
0.000143505
0.000129137
0.000102966
5.67809e-05
)
;

boundaryField
{
    movingWall
    {
        type            calculated;
        value           uniform 0;
    }
    fixedWalls
    {
        type            calculated;
        value           uniform 0;
    }
    frontAndBack
    {
        type            empty;
        value           nonuniform List<scalar> 0();
    }
}


// ************************************************************************* //
