/*--------------------------------*- C++ -*----------------------------------*\
  =========                 |
  \\      /  F ield         | OpenFOAM: The Open Source CFD Toolbox
   \\    /   O peration     | Website:  https://openfoam.org
    \\  /    A nd           | Version:  8
     \\/     M anipulation  |
\*---------------------------------------------------------------------------*/
FoamFile
{
    version     2.0;
    format      ascii;
    class       volScalarField;
    location    "0.5";
    object      p;
}
// * * * * * * * * * * * * * * * * * * * * * * * * * * * * * * * * * * * * * //

dimensions      [0 2 -2 0 0 0 0];

internalField   nonuniform List<scalar> 
400
(
1.52548e-06
-0.0281511
-0.0613639
-0.0862869
-0.0959576
-0.0874524
-0.0603373
-0.0157642
0.0438634
0.114844
0.192054
0.269007
0.338289
0.392455
0.425336
0.433584
0.418139
0.385279
0.346828
0.319319
0.0279894
-0.0012024
-0.027138
-0.0440612
-0.0492751
-0.0408245
-0.0181975
0.0179338
0.0659009
0.122947
0.185106
0.24727
0.303544
0.348009
0.375795
0.384308
0.37435
0.350549
0.320101
0.292213
0.0631479
0.0228769
-0.00481413
-0.0199527
-0.0241956
-0.016833
0.00236581
0.0329262
0.0737288
0.122764
0.176889
0.231776
0.282191
0.322648
0.348407
0.356641
0.347552
0.324489
0.290979
0.251773
0.0921271
0.0371755
0.00335427
-0.0135823
-0.0190934
-0.0136024
0.00279329
0.0297388
0.0665826
0.111941
0.163264
0.216621
0.266853
0.308155
0.335077
0.34381
0.333557
0.306626
0.263932
0.208122
0.105226
0.0356066
-0.00532191
-0.0252642
-0.0329711
-0.0297715
-0.0159552
0.00833381
0.0429683
0.0872084
0.139057
0.19485
0.249235
0.29566
0.327392
0.339008
0.328234
0.296248
0.241826
0.166746
0.094771
0.0114567
-0.0365443
-0.0599162
-0.0702638
-0.0695956
-0.0582168
-0.0359087
-0.00214465
0.0430923
0.0984445
0.160534
0.223705
0.280345
0.321885
0.340543
0.331841
0.29539
0.227799
0.130718
0.0542591
-0.0414852
-0.0960904
-0.12292
-0.136113
-0.138188
-0.129302
-0.108695
-0.0749892
-0.0271876
0.0342345
0.106396
0.183422
0.256469
0.31458
0.346694
0.345024
0.306644
0.22523
0.102562
-0.0221027
-0.128911
-0.189387
-0.219415
-0.235491
-0.240576
-0.234559
-0.215956
-0.182285
-0.13122
-0.0619261
0.0236727
0.119848
0.216594
0.30012
0.354992
0.368523
0.333499
0.238842
0.0860825
-0.139567
-0.256117
-0.321517
-0.354148
-0.372896
-0.381231
-0.378742
-0.363064
-0.330321
-0.276409
-0.198562
-0.0970073
0.0234138
0.152001
0.27197
0.362384
0.40356
0.381202
0.276107
0.0882069
-0.30287
-0.428059
-0.497069
-0.531014
-0.551565
-0.562991
-0.564669
-0.553256
-0.523185
-0.468063
-0.382425
-0.263778
-0.114916
0.0538176
0.223065
0.365577
0.45224
0.457648
0.348907
0.121216
-0.516411
-0.649577
-0.72002
-0.752454
-0.772419
-0.785603
-0.791406
-0.785466
-0.760256
-0.706566
-0.615398
-0.480342
-0.300577
-0.0843508
0.147777
0.362307
0.518494
0.574661
0.475759
0.205912
-0.785061
-0.926112
-0.993823
-1.01882
-1.03285
-1.04406
-1.05222
-1.05192
-1.03338
-0.98407
-0.890668
-0.741645
-0.5308
-0.261928
0.0457796
0.354262
0.610182
0.750044
0.684996
0.376545
-1.11645
-1.26534
-1.32175
-1.32765
-1.32538
-1.32698
-1.3328
-1.33614
-1.32457
-1.28171
-1.18926
-1.02958
-0.789474
-0.465667
-0.0722997
0.351936
0.742873
1.0109
1.01951
0.688941
-1.52655
-1.68039
-1.70741
-1.67273
-1.63633
-1.61533
-1.6102
-1.61219
-1.60538
-1.56888
-1.47887
-1.31098
-1.04393
-0.665107
-0.179397
0.380172
0.944665
1.39825
1.5439
1.23453
-2.05247
-2.19537
-2.1546
-2.04214
-1.94411
-1.88168
-1.85326
-1.84606
-1.83915
-1.80609
-1.71705
-1.54068
-1.24721
-0.813361
-0.230979
0.480475
1.25876
1.9701
2.35243
2.16144
-2.77907
-2.85365
-2.66539
-2.41506
-2.21756
-2.09052
-2.02475
-1.99961
-1.98656
-1.95214
-1.85989
-1.67153
-1.34879
-0.857323
-0.173219
0.705725
1.74004
2.79829
3.57014
3.69395
-3.8949
-3.72764
-3.23817
-2.76257
-2.41905
-2.20332
-2.08849
-2.03951
-2.01635
-1.9768
-1.87718
-1.67234
-1.31566
-0.761165
0.0335669
1.10048
2.44077
3.95758
5.35278
6.1639
-5.87713
-4.9176
-3.83679
-3.02861
-2.49514
-2.17607
-2.01234
-1.94451
-1.91628
-1.87542
-1.77147
-1.55324
-1.16613
-0.551664
0.355814
1.62966
3.33549
5.4679
7.91992
10.252
-10.089
-6.45777
-4.14496
-2.93523
-2.25011
-1.87857
-1.71577
-1.67178
-1.67311
-1.66036
-1.58007
-1.37857
-0.998082
-0.369963
0.594452
2.02115
4.08613
7.02749
11.4118
17.472
-18.2355
-7.92817
-3.4704
-2.02603
-1.4242
-1.16824
-1.12629
-1.19412
-1.29252
-1.36437
-1.36092
-1.23334
-0.927508
-0.376519
0.511574
1.89151
4.07037
7.73872
14.8709
27.87
)
;

boundaryField
{
    movingWall
    {
        type            zeroGradient;
    }
    fixedWalls
    {
        type            zeroGradient;
    }
    frontAndBack
    {
        type            empty;
    }
}


// ************************************************************************* //
