/*--------------------------------*- C++ -*----------------------------------*\
  =========                 |
  \\      /  F ield         | OpenFOAM: The Open Source CFD Toolbox
   \\    /   O peration     | Website:  https://openfoam.org
    \\  /    A nd           | Version:  8
     \\/     M anipulation  |
\*---------------------------------------------------------------------------*/
FoamFile
{
    version     2.0;
    format      ascii;
    class       volScalarField;
    location    "0.3";
    object      p;
}
// * * * * * * * * * * * * * * * * * * * * * * * * * * * * * * * * * * * * * //

dimensions      [0 2 -2 0 0 0 0];

internalField   nonuniform List<scalar> 
400
(
-2.17932e-06
-0.0128377
-0.028316
-0.0400182
-0.0443357
-0.0397038
-0.0259859
-0.00402194
0.0246514
0.0579467
0.0933225
0.127902
0.158663
0.182733
0.197778
0.202482
0.19706
0.183751
0.167184
0.154437
0.0127257
-0.000514772
-0.0126123
-0.0205918
-0.0228317
-0.0182567
-0.00669354
0.0112837
0.0345414
0.0614794
0.0901044
0.118137
0.143183
0.162979
0.175719
0.180413
0.177272
0.167907
0.154867
0.141846
0.029109
0.0108142
-0.00219483
-0.00944246
-0.0112269
-0.007042
0.00313348
0.0187818
0.0389801
0.0624273
0.0874663
0.112153
0.134397
0.152174
0.163804
0.168268
0.16556
0.156712
0.142486
0.124356
0.0434117
0.0182944
0.00225612
-0.00593215
-0.00819042
-0.00452412
0.00487952
0.0194571
0.0383791
0.0605136
0.0843857
0.108199
0.129938
0.147554
0.15922
0.163648
0.160488
0.150275
0.132381
0.107004
0.051688
0.0195539
-4.80111e-05
-0.00966507
-0.0126127
-0.00932752
-0.000186833
0.0141849
0.0330148
0.0552856
0.0796327
0.104313
0.127263
0.146261
0.159166
0.16426
0.160744
0.148678
0.126261
0.0928886
0.0509547
0.0119484
-0.011279
-0.0223735
-0.0258921
-0.0226368
-0.0131433
0.00191371
0.0218109
0.0456246
0.0720641
0.0993827
0.125387
0.147561
0.163298
0.170282
0.167128
0.153354
0.126044
0.0840497
0.0386527
-0.0070569
-0.0337541
-0.0460939
-0.0498146
-0.0460543
-0.0354817
-0.0188003
0.00333376
0.0301023
0.0602915
0.0921368
0.123269
0.150784
0.171462
0.182184
0.180763
0.166004
0.13371
0.0822485
0.0122755
-0.0400213
-0.0698722
-0.0829678
-0.0862777
-0.0812961
-0.0688175
-0.049546
-0.0240287
0.00707285
0.0426739
0.0810321
0.119609
0.155063
0.183411
0.200495
0.203011
0.188707
0.151677
0.0896318
-0.0308813
-0.0897393
-0.122262
-0.135326
-0.137317
-0.13017
-0.114826
-0.0919583
-0.0619398
-0.0251826
0.0174663
0.0643946
0.112974
0.159435
0.198921
0.225957
0.235698
0.224277
0.183288
0.109339
-0.0939204
-0.159427
-0.193868
-0.205646
-0.20495
-0.194337
-0.174942
-0.147385
-0.111768
-0.0681198
-0.0168768
0.0406673
0.101972
0.162951
0.217843
0.259591
0.281278
0.2766
0.233358
0.146169
-0.180631
-0.25299
-0.28804
-0.296435
-0.290894
-0.274901
-0.249877
-0.216347
-0.174027
-0.12237
-0.0611691
0.00887878
0.0856257
0.164934
0.240266
0.302821
0.343033
0.351042
0.308879
0.20749
-0.296083
-0.375494
-0.408681
-0.410049
-0.396145
-0.371841
-0.338944
-0.297816
-0.247609
-0.186965
-0.114727
-0.0306375
0.0639993
0.16547
0.266854
0.357701
0.425335
0.454983
0.420014
0.304654
-0.447954
-0.53404
-0.560432
-0.54836
-0.520347
-0.483229
-0.439223
-0.388347
-0.328921
-0.258462
-0.174516
-0.0753864
0.0389965
0.166071
0.299318
0.427231
0.533965
0.598463
0.58156
0.455443
-0.64953
-0.739312
-0.7488
-0.712099
-0.660838
-0.604235
-0.544631
-0.481257
-0.411139
-0.330245
-0.234403
-0.120032
0.0150026
0.170227
0.340786
0.51549
0.676199
0.794792
0.815141
0.688704
-0.926301
-1.00809
-0.979697
-0.89934
-0.811061
-0.725827
-0.645018
-0.566092
-0.483987
-0.39253
-0.285373
-0.156578
-0.00129092
0.183173
0.395362
0.626878
0.859893
1.06038
1.15202
1.05282
-1.32857
-1.36631
-1.25774
-1.10303
-0.958573
-0.833612
-0.725873
-0.629065
-0.534726
-0.433734
-0.317085
-0.176088
-0.00262168
0.210206
0.466433
0.764192
1.09121
1.41263
1.6345
1.62752
-1.95556
-1.85093
-1.58336
-1.30959
-1.08497
-0.908922
-0.770442
-0.655948
-0.55153
-0.444171
-0.321774
-0.172668
0.014881
0.252907
0.553261
0.925603
1.3713
1.86533
2.31492
2.54268
-3.0423
-2.50719
-1.93305
-1.48566
-1.15925
-0.926819
-0.760828
-0.635056
-0.527665
-0.421036
-0.300039
-0.150289
0.0433711
0.298623
0.637474
1.08719
1.67377
2.40501
3.26084
4.07467
-5.23505
-3.35168
-2.15265
-1.49393
-1.08562
-0.825623
-0.66031
-0.54729
-0.45658
-0.367361
-0.263283
-0.129084
0.0517065
0.300461
0.648513
1.14435
1.85504
2.88358
4.5147
6.90023
-9.14842
-4.1734
-1.93623
-1.13054
-0.750548
-0.547569
-0.442678
-0.384435
-0.340982
-0.293174
-0.227264
-0.131047
0.00947345
0.213042
0.510934
0.962343
1.68256
2.95791
5.75016
11.2855
)
;

boundaryField
{
    movingWall
    {
        type            zeroGradient;
    }
    fixedWalls
    {
        type            zeroGradient;
    }
    frontAndBack
    {
        type            empty;
    }
}


// ************************************************************************* //
