/*--------------------------------*- C++ -*----------------------------------*\
  =========                 |
  \\      /  F ield         | OpenFOAM: The Open Source CFD Toolbox
   \\    /   O peration     | Website:  https://openfoam.org
    \\  /    A nd           | Version:  8
     \\/     M anipulation  |
\*---------------------------------------------------------------------------*/
FoamFile
{
    version     2.0;
    format      ascii;
    class       surfaceScalarField;
    location    "0.3";
    object      phi;
}
// * * * * * * * * * * * * * * * * * * * * * * * * * * * * * * * * * * * * * //

dimensions      [0 3 -1 0 0 0 0];

internalField   nonuniform List<scalar> 
760
(
2.99231e-08
-2.99046e-08
-5.24183e-08
8.23422e-08
-2.55148e-07
2.02729e-07
-5.41228e-07
2.86078e-07
-8.68161e-07
3.26932e-07
-1.19675e-06
3.2859e-07
-1.49347e-06
2.96716e-07
-1.73094e-06
2.37473e-07
-1.8879e-06
1.56955e-07
-1.94938e-06
6.14826e-08
-1.90757e-06
-4.1813e-08
-1.76305e-06
-1.44517e-07
-1.52624e-06
-2.36815e-07
-1.21836e-06
-3.07872e-07
-8.71576e-07
-3.46787e-07
-5.27376e-07
-3.442e-07
-2.32819e-07
-2.94558e-07
-3.39147e-08
-1.98905e-07
3.69134e-08
-7.0829e-08
3.69128e-08
-7.8701e-08
4.87961e-08
-4.04289e-07
4.07931e-07
-9.62359e-07
7.60797e-07
-1.68446e-06
1.00818e-06
-2.48569e-06
1.12816e-06
-3.28144e-06
1.12434e-06
-3.99546e-06
1.01074e-06
-4.56363e-06
8.05637e-07
-4.93582e-06
5.29147e-07
-5.07758e-06
2.03245e-07
-4.9722e-06
-1.47189e-07
-4.62321e-06
-4.93508e-07
-4.0567e-06
-8.03327e-07
-3.32254e-06
-1.04203e-06
-2.49328e-06
-1.17605e-06
-1.65943e-06
-1.17804e-06
-9.19908e-07
-1.03408e-06
-3.66656e-07
-7.52155e-07
-6.20826e-08
-3.75401e-07
-2.5171e-08
-2.08148e-07
2.56944e-07
-7.95905e-07
9.95689e-07
-1.69199e-06
1.65688e-06
-2.79354e-06
2.10972e-06
-3.98468e-06
2.3193e-06
-5.15109e-06
2.29075e-06
-6.18904e-06
2.04868e-06
-7.01058e-06
1.62718e-06
-7.54681e-06
1.06538e-06
-7.75053e-06
4.06969e-07
-7.59918e-06
-2.98546e-07
-7.09793e-06
-9.94755e-07
-6.28253e-06
-1.61872e-06
-5.22059e-06
-2.10398e-06
-4.00995e-06
-2.38669e-06
-2.77251e-06
-2.41548e-06
-1.64218e-06
-2.16441e-06
-7.46689e-07
-1.64765e-06
-1.84257e-07
-9.37833e-07
-2.09429e-07
-3.26184e-07
5.83128e-07
-1.16779e-06
1.8373e-06
-2.38793e-06
2.87702e-06
-3.84133e-06
3.56313e-06
-5.3817e-06
3.85966e-06
-6.87092e-06
3.77998e-06
-8.18594e-06
3.3637e-06
-9.22307e-06
2.66431e-06
-9.9011e-06
1.74341e-06
-1.0164e-05
6.69904e-07
-9.98423e-06
-4.78349e-07
-9.36599e-06
-1.613e-06
-8.34897e-06
-2.63574e-06
-7.01044e-06
-3.44251e-06
-5.46451e-06
-3.93262e-06
-3.85667e-06
-4.02333e-06
-2.35199e-06
-3.66909e-06
-1.11696e-06
-2.88268e-06
-2.97361e-07
-1.75743e-06
-5.06791e-07
-4.3298e-07
1.01611e-06
-1.51559e-06
2.91991e-06
-3.04622e-06
4.40764e-06
-4.8336e-06
5.35051e-06
-6.70005e-06
5.72611e-06
-8.48616e-06
5.56609e-06
-1.00541e-05
4.93164e-06
-1.12896e-05
3.89979e-06
-1.21033e-05
2.55708e-06
-1.24325e-05
9.99153e-07
-1.22442e-05
-6.6663e-07
-1.15387e-05
-2.31856e-06
-1.0354e-05
-3.82042e-06
-8.77039e-06
-5.02612e-06
-6.91197e-06
-5.79104e-06
-4.94415e-06
-5.99116e-06
-3.064e-06
-5.54923e-06
-1.48306e-06
-4.46362e-06
-4.04331e-07
-2.83617e-06
-9.11122e-07
-5.32843e-07
1.54895e-06
-1.84615e-06
4.23322e-06
-3.67574e-06
6.23723e-06
-5.78311e-06
7.45788e-06
-7.95888e-06
7.90189e-06
-1.00242e-05
7.63142e-06
-1.18301e-05
6.73749e-06
-1.32556e-05
5.32528e-06
-1.42065e-05
3.50802e-06
-1.46153e-05
1.40791e-06
-1.44424e-05
-8.39493e-07
-1.36807e-05
-3.08028e-06
-1.23611e-05
-5.14004e-06
-1.05598e-05
-6.82735e-06
-8.4049e-06
-7.94596e-06
-6.07826e-06
-8.31779e-06
-3.81063e-06
-7.81686e-06
-1.86575e-06
-6.4085e-06
-5.1415e-07
-4.18777e-06
-1.42527e-06
-6.29915e-07
2.17887e-06
-2.16774e-06
5.77104e-06
-4.28645e-06
8.35594e-06
-6.69936e-06
9.87079e-06
-9.16605e-06
1.03686e-05
-1.14909e-05
9.95627e-06
-1.35178e-05
8.76443e-06
-1.5124e-05
6.93139e-06
-1.62141e-05
4.59816e-06
-1.67176e-05
1.91143e-06
-1.65883e-05
-9.68811e-07
-1.5808e-05
-3.86061e-06
-1.43941e-05
-6.55389e-06
-1.24109e-05
-8.81058e-06
-9.98164e-06
-1.03752e-05
-7.2991e-06
-1.10003e-05
-4.62731e-06
-1.04886e-05
-2.28934e-06
-8.74647e-06
-6.36687e-07
-5.84043e-06
-2.06196e-06
-7.27701e-07
2.90657e-06
-2.48758e-06
7.53092e-06
-4.88535e-06
1.07537e-05
-7.58416e-06
1.25696e-05
-1.0314e-05
1.30984e-05
-1.28669e-05
1.25091e-05
-1.50858e-05
1.09833e-05
-1.68522e-05
8.69785e-06
-1.80757e-05
5.82163e-06
-1.86862e-05
2.52191e-06
-1.86314e-05
-1.02359e-06
-1.78794e-05
-4.61258e-06
-1.64275e-05
-8.00585e-06
-1.43171e-05
-1.09209e-05
-1.16549e-05
-1.30374e-05
-8.63337e-06
-1.40219e-05
-5.54494e-06
-1.35771e-05
-2.7777e-06
-1.15137e-05
-7.81836e-07
-7.8363e-06
-2.84379e-06
-8.2959e-07
3.73616e-06
-2.81224e-06
9.51357e-06
-5.47616e-06
1.34176e-05
-8.43026e-06
1.55237e-05
-1.13775e-05
1.60456e-05
-1.41046e-05
1.52363e-05
-1.64628e-05
1.33415e-05
-1.83476e-05
1.05826e-05
-1.96814e-05
7.15539e-06
-2.04009e-05
3.24146e-06
-2.04509e-05
-9.73587e-07
-1.97843e-05
-5.27917e-06
-1.83714e-05
-9.41879e-06
-1.62187e-05
-1.30736e-05
-1.33984e-05
-1.58577e-05
-1.00843e-05
-1.7336e-05
-6.58417e-06
-1.70772e-05
-3.35241e-06
-1.47455e-05
-9.59645e-07
-1.02291e-05
-3.80344e-06
-9.40382e-07
4.67654e-06
-3.15033e-06
1.17235e-05
-6.06147e-06
1.63288e-05
-9.22189e-06
1.86841e-05
-1.23123e-05
1.9136e-05
-1.51253e-05
1.80493e-05
-1.75341e-05
1.57503e-05
-1.94612e-05
1.25098e-05
-2.0854e-05
8.5482e-06
-2.16655e-05
4.05294e-06
-2.18434e-05
-7.95719e-07
-2.13269e-05
-5.79566e-06
-2.00542e-05
-1.06915e-05
-1.79832e-05
-1.51446e-05
-1.51294e-05
-1.87116e-05
-1.16189e-05
-2.08465e-05
-7.74907e-06
-2.0947e-05
-4.03179e-06
-1.84627e-05
-1.18122e-06
-1.30796e-05
-4.98465e-06
-1.06901e-06
5.74555e-06
-3.51693e-06
1.41714e-05
-6.64606e-06
1.94579e-05
-9.93507e-06
2.19731e-05
-1.3052e-05
2.2253e-05
-1.58133e-05
2.08106e-05
-1.81334e-05
1.80703e-05
-1.998e-05
1.43565e-05
-2.13405e-05
9.9087e-06
-2.21969e-05
4.90927e-06
-2.25094e-05
-4.83169e-07
-2.22093e-05
-6.09578e-06
-2.12011e-05
-1.16997e-05
-1.93823e-05
-1.69634e-05
-1.66855e-05
-2.14084e-05
-1.31499e-05
-2.43822e-05
-9.01764e-06
-2.50792e-05
-4.82954e-06
-2.26508e-05
-1.46035e-06
-1.64488e-05
-6.44501e-06
-1.23302e-06
6.97856e-06
-3.93968e-06
1.68781e-05
-7.23928e-06
2.27575e-05
-1.0534e-05
2.52678e-05
-1.34995e-05
2.52185e-05
-1.60047e-05
2.33159e-05
-1.80321e-05
2.00977e-05
-1.96166e-05
1.5941e-05
-2.0803e-05
1.10951e-05
-2.16168e-05
5.72309e-06
-2.20438e-05
-5.61695e-08
-2.20174e-05
-6.12212e-06
-2.14141e-05
-1.2303e-05
-2.00648e-05
-1.83126e-05
-1.77953e-05
-2.36779e-05
-1.45093e-05
-2.76682e-05
-1.03255e-05
-2.9263e-05
-5.75119e-06
-2.72252e-05
-1.81623e-06
-2.03838e-05
-8.26123e-06
-1.46588e-06
8.44444e-06
-4.46473e-06
1.98769e-05
-7.85058e-06
2.61434e-05
-1.09548e-05
2.83721e-05
-1.35033e-05
2.7767e-05
-1.54621e-05
2.52747e-05
-1.69166e-05
2.15522e-05
-1.79928e-05
1.70171e-05
-1.88091e-05
1.19114e-05
-1.94474e-05
6.36142e-06
-1.99325e-05
4.2888e-07
-2.02145e-05
-5.84009e-06
-2.01563e-05
-1.23612e-05
-1.95298e-05
-1.89391e-05
-1.80407e-05
-2.51669e-05
-1.54086e-05
-3.03003e-05
-1.15368e-05
-3.31349e-05
-6.78478e-06
-3.19772e-05
-2.27733e-06
-2.48912e-05
-1.05386e-05
-1.82809e-06
1.02725e-05
-5.15683e-06
2.32057e-05
-8.46449e-06
2.9451e-05
-1.10598e-05
3.09674e-05
-1.28025e-05
2.95096e-05
-1.38221e-05
2.62943e-05
-1.4347e-05
2.20771e-05
-1.46131e-05
1.72832e-05
-1.48205e-05
1.21188e-05
-1.51121e-05
6.65304e-06
-1.55599e-05
8.76724e-07
-1.61479e-05
-5.25209e-06
-1.67498e-05
-1.17593e-05
-1.71054e-05
-1.85835e-05
-1.68135e-05
-2.54589e-05
-1.53802e-05
-3.17336e-05
-1.23907e-05
-3.61243e-05
-7.87597e-06
-3.64919e-05
-2.88501e-06
-2.98822e-05
-1.34236e-05
-2.4189e-06
1.26914e-05
-6.07231e-06
2.68591e-05
-8.95981e-06
3.23385e-05
-1.05243e-05
3.25319e-05
-1.09099e-05
2.98953e-05
-1.04954e-05
2.58798e-05
-9.68369e-06
2.12654e-05
-8.82125e-06
1.64208e-05
-8.17681e-06
1.14743e-05
-7.94205e-06
6.41828e-06
-8.23254e-06
1.16722e-06
-9.07781e-06
-4.40682e-06
-1.03947e-05
-1.04425e-05
-1.19422e-05
-1.7036e-05
-1.32685e-05
-2.41326e-05
-1.36904e-05
-3.13117e-05
-1.24002e-05
-3.74145e-05
-8.86052e-06
-4.00316e-05
-3.68529e-06
-3.50574e-05
-1.71089e-05
-3.36205e-06
1.60535e-05
-7.13466e-06
3.06317e-05
-8.88918e-06
3.4093e-05
-8.58949e-06
3.22322e-05
-6.89357e-06
2.81993e-05
-4.50123e-06
2.34874e-05
-1.97986e-06
1.8744e-05
2.5656e-07
1.41844e-05
1.91834e-06
9.81256e-06
2.80433e-06
5.5323e-06
2.7787e-06
1.19285e-06
1.76713e-06
-3.39525e-06
-2.21047e-07
-8.45429e-06
-3.03534e-06
-1.42217e-05
-6.28511e-06
-2.08829e-05
-9.21723e-06
-2.83796e-05
-1.06629e-05
-3.59688e-05
-9.28839e-06
-4.14062e-05
-4.66496e-06
-3.96809e-05
-2.17738e-05
-4.67426e-06
2.07277e-05
-7.7179e-06
3.36753e-05
-6.94137e-06
3.33165e-05
-3.57804e-06
2.88689e-05
9.80028e-07
2.36413e-05
5.75563e-06
1.87118e-05
1.01343e-05
1.43654e-05
1.37501e-05
1.05685e-05
1.63847e-05
7.17805e-06
1.7894e-05
4.02294e-06
1.81657e-05
9.21114e-07
1.71002e-05
-2.3297e-06
1.46181e-05
-5.97222e-06
1.0709e-05
-1.03126e-05
5.5479e-06
-1.57217e-05
-2.8904e-07
-2.25426e-05
-5.53048e-06
-3.07274e-05
-8.02896e-06
-3.89077e-05
-5.53544e-06
-4.21744e-05
-2.73093e-05
-5.75764e-06
2.64854e-05
-5.45882e-06
3.33765e-05
2.32453e-07
2.76252e-05
7.92818e-06
2.11731e-05
1.5699e-05
1.58704e-05
2.26677e-05
1.17431e-05
2.84692e-05
8.56388e-06
3.29777e-05
6.06005e-06
3.61614e-05
3.99436e-06
3.80046e-05
2.17969e-06
3.84658e-05
4.59944e-07
3.74549e-05
-1.31879e-06
3.48215e-05
-3.33886e-06
3.03674e-05
-5.85842e-06
2.39159e-05
-9.27029e-06
1.55231e-05
-1.41498e-05
5.95855e-06
-2.11628e-05
-2.445e-06
-3.05041e-05
-5.1897e-06
-3.94297e-05
-3.2499e-05
-2.49905e-06
2.89844e-05
7.28062e-06
2.35968e-05
2.02714e-05
1.46345e-05
3.20322e-05
9.41236e-06
4.16512e-05
6.2514e-06
4.91861e-05
4.20826e-06
5.4902e-05
2.84795e-06
5.90637e-05
1.89837e-06
6.1873e-05
1.18503e-06
6.34536e-05
5.99074e-07
6.38459e-05
6.77043e-08
6.30016e-05
-4.74472e-07
6.07591e-05
-1.09639e-06
5.68118e-05
-1.91113e-06
5.06644e-05
-3.12291e-06
4.16472e-05
-5.13259e-06
2.92035e-05
-8.7191e-06
1.39626e-05
-1.52633e-05
6.55284e-07
-2.61223e-05
-3.18437e-05
2.89844e-05
5.25813e-05
6.72157e-05
7.66281e-05
8.28795e-05
8.70878e-05
8.99357e-05
9.18341e-05
9.30191e-05
9.36182e-05
9.36859e-05
9.32114e-05
9.2115e-05
9.02039e-05
8.7081e-05
8.19484e-05
7.32293e-05
5.7966e-05
3.18437e-05
)
;

boundaryField
{
    movingWall
    {
        type            calculated;
        value           uniform 0;
    }
    fixedWalls
    {
        type            calculated;
        value           uniform 0;
    }
    frontAndBack
    {
        type            empty;
        value           nonuniform List<scalar> 0();
    }
}


// ************************************************************************* //
