/*--------------------------------*- C++ -*----------------------------------*\
  =========                 |
  \\      /  F ield         | OpenFOAM: The Open Source CFD Toolbox
   \\    /   O peration     | Website:  https://openfoam.org
    \\  /    A nd           | Version:  8
     \\/     M anipulation  |
\*---------------------------------------------------------------------------*/
FoamFile
{
    version     2.0;
    format      ascii;
    class       volVectorField;
    location    "0.3";
    object      U;
}
// * * * * * * * * * * * * * * * * * * * * * * * * * * * * * * * * * * * * * //

dimensions      [0 1 -1 0 0 0 0];

internalField   nonuniform List<vector> 
400
(
(0.000543425 -0.000538506 0)
(0.000257724 0.000264645 0)
(-0.00267064 0.00124539 0)
(-0.00771539 0.00192633 0)
(-0.0140119 0.00226484 0)
(-0.0207213 0.00230219 0)
(-0.0271067 0.0020922 0)
(-0.0325551 0.00168548 0)
(-0.0365781 0.0011266 0)
(-0.0388107 0.000458652 0)
(-0.0390207 -0.000270096 0)
(-0.037131 -0.0010009 0)
(-0.0332474 -0.00166234 0)
(-0.0276854 -0.00217234 0)
(-0.0209833 -0.00244472 0)
(-0.0138905 -0.00240103 0)
(-0.00731639 -0.0019884 0)
(-0.00222724 -0.00120371 0)
(0.000525496 -0.000160934 0)
(0.000612583 0.00059751 0)
(-0.000206008 -0.000313739 0)
(-0.00366355 0.00369825 0)
(-0.0126937 0.00796759 0)
(-0.025902 0.0109892 0)
(-0.0415435 0.0124874 0)
(-0.0578947 0.0125337 0)
(-0.0733269 0.0113144 0)
(-0.0864207 0.00905168 0)
(-0.0960244 0.00597638 0)
(-0.101284 0.00233394 0)
(-0.101677 -0.00159839 0)
(-0.0970615 -0.00549711 0)
(-0.0877257 -0.0089902 0)
(-0.0744293 -0.0116729 0)
(-0.0584104 -0.0131451 0)
(-0.0413339 -0.0130724 0)
(-0.0251441 -0.0112727 0)
(-0.0118113 -0.0078246 0)
(-0.00308539 -0.00327656 0)
(-3.66548e-05 0.000598245 0)
(-0.00121883 0.00254829 0)
(-0.0083383 0.0127972 0)
(-0.0235276 0.0225068 0)
(-0.0441333 0.0292979 0)
(-0.0676399 0.0325558 0)
(-0.0917486 0.032344 0)
(-0.114263 0.0290286 0)
(-0.133241 0.0231123 0)
(-0.147101 0.0151638 0)
(-0.154668 0.00581316 0)
(-0.155232 -0.00422538 0)
(-0.148605 -0.0141339 0)
(-0.135186 -0.0229949 0)
(-0.11601 -0.0298359 0)
(-0.0927498 -0.0337212 0)
(-0.0676479 -0.0338995 0)
(-0.043317 -0.0300009 0)
(-0.0224179 -0.0222684 0)
(-0.00754179 -0.0118855 0)
(-0.000966718 -0.00185082 0)
(-0.00211757 0.0079264 0)
(-0.0127328 0.0271786 0)
(-0.0339022 0.0438177 0)
(-0.061495 0.0550663 0)
(-0.092158 0.0601468 0)
(-0.123098 0.0592001 0)
(-0.151704 0.0528394 0)
(-0.175682 0.0419201 0)
(-0.19317 0.027434 0)
(-0.202782 0.0104939 0)
(-0.203667 -0.00763963 0)
(-0.195576 -0.0255338 0)
(-0.178935 -0.0415952 0)
(-0.154909 -0.0541446 0)
(-0.125428 -0.0615713 0)
(-0.0931308 -0.0625765 0)
(-0.0611692 -0.0564935 0)
(-0.0328712 -0.0436429 0)
(-0.0118194 -0.0257346 0)
(-0.00179277 -0.00668109 0)
(-0.00290172 0.0155478 0)
(-0.0167805 0.0464787 0)
(-0.0436839 0.0713986 0)
(-0.0779575 0.0875671 0)
(-0.115359 0.094327 0)
(-0.152619 0.092073 0)
(-0.186788 0.0817757 0)
(-0.215328 0.064718 0)
(-0.236192 0.0423696 0)
(-0.247853 0.0163721 0)
(-0.249339 -0.0114229 0)
(-0.240302 -0.0389169 0)
(-0.221106 -0.0637728 0)
(-0.19292 -0.0835098 0)
(-0.157788 -0.0957122 0)
(-0.118641 -0.098368 0)
(-0.0791285 -0.0903199 0)
(-0.0433191 -0.0717539 0)
(-0.0159658 -0.0446826 0)
(-0.00253426 -0.0136924 0)
(-0.00362001 0.0252245 0)
(-0.0205966 0.0704761 0)
(-0.0530217 0.105052 0)
(-0.0937233 0.126581 0)
(-0.137551 0.134829 0)
(-0.180771 0.130671 0)
(-0.220156 0.115583 0)
(-0.253002 0.0913639 0)
(-0.277162 0.0600032 0)
(-0.291017 0.0236832 0)
(-0.293484 -0.0151555 0)
(-0.284075 -0.053746 0)
(-0.262995 -0.0889788 0)
(-0.231284 -0.117493 0)
(-0.190964 -0.13592 0)
(-0.145145 -0.141307 0)
(-0.0979549 -0.13172 0)
(-0.0542881 -0.106897 0)
(-0.0202703 -0.0688879 0)
(-0.0032778 -0.0228405 0)
(-0.0043172 0.036859 0)
(-0.0243129 0.0990126 0)
(-0.0621059 0.144587 0)
(-0.108994 0.171868 0)
(-0.15891 0.181365 0)
(-0.20769 0.174694 0)
(-0.251902 0.154018 0)
(-0.288771 0.121746 0)
(-0.316136 0.0804185 0)
(-0.332352 0.0327358 0)
(-0.336243 -0.0183217 0)
(-0.327141 -0.0693687 0)
(-0.304996 -0.116541 0)
(-0.270567 -0.155547 0)
(-0.225674 -0.181903 0)
(-0.173455 -0.191437 0)
(-0.118434 -0.18104 0)
(-0.066396 -0.149573 0)
(-0.0250755 -0.098774 0)
(-0.00411733 -0.0342777 0)
(-0.00503078 0.050431 0)
(-0.0280477 0.132004 0)
(-0.0710998 0.189815 0)
(-0.123879 0.223109 0)
(-0.179394 0.233505 0)
(-0.233116 0.22367 0)
(-0.281515 0.196664 0)
(-0.321881 0.155611 0)
(-0.352166 0.103612 0)
(-0.370793 0.0438288 0)
(-0.376544 -0.0203218 0)
(-0.368553 -0.0849509 0)
(-0.346415 -0.145524 0)
(-0.310434 -0.196816 0)
(-0.261992 -0.233091 0)
(-0.203999 -0.248623 0)
(-0.141195 -0.23862 0)
(-0.0802339 -0.200462 0)
(-0.0307312 -0.135052 0)
(-0.00514898 -0.0483576 0)
(-0.00579844 0.0659869 0)
(-0.031919 0.169434 0)
(-0.0801413 0.240518 0)
(-0.138381 0.27983 0)
(-0.198708 0.290557 0)
(-0.256333 0.276799 0)
(-0.307809 0.242758 0)
(-0.350681 0.192387 0)
(-0.383198 0.129339 0)
(-0.404004 0.0571387 0)
(-0.411932 -0.0205252 0)
(-0.405941 -0.099455 0)
(-0.385197 -0.174623 0)
(-0.349355 -0.23996 0)
(-0.299051 -0.288396 0)
(-0.236584 -0.312318 0)
(-0.166546 -0.304616 0)
(-0.0962957 -0.260329 0)
(-0.037589 -0.178701 0)
(-0.00647813 -0.0656341 0)
(-0.00667622 0.0836489 0)
(-0.0360917 0.211353 0)
(-0.0893964 0.296397 0)
(-0.152426 0.341275 0)
(-0.21629 0.351376 0)
(-0.27613 0.332721 0)
(-0.328844 0.290948 0)
(-0.372512 0.230952 0)
(-0.405936 0.156909 0)
(-0.428198 0.0725591 0)
(-0.438342 -0.0183675 0)
(-0.435235 -0.111651 0)
(-0.417586 -0.202068 0)
(-0.384222 -0.282941 0)
(-0.334666 -0.345916 0)
(-0.270076 -0.381213 0)
(-0.194285 -0.378677 0)
(-0.114916 -0.329825 0)
(-0.0460192 -0.230899 0)
(-0.00823692 -0.0868717 0)
(-0.0077714 0.103666 0)
(-0.0408624 0.257904 0)
(-0.0991493 0.356998 0)
(-0.165898 0.406237 0)
(-0.231287 0.414127 0)
(-0.290704 0.38925 0)
(-0.341796 0.339021 0)
(-0.383557 0.269377 0)
(-0.415679 0.18495 0)
(-0.437956 0.0894981 0)
(-0.449875 -0.013504 0)
(-0.450367 -0.120196 0)
(-0.437746 -0.225596 0)
(-0.409891 -0.322846 0)
(-0.364852 -0.402587 0)
(-0.30197 -0.452777 0)
(-0.223409 -0.459476 0)
(-0.136174 -0.409146 0)
(-0.0564418 -0.292922 0)
(-0.010615 -0.113082 0)
(-0.00930074 0.126539 0)
(-0.0467873 0.309397 0)
(-0.1099 0.421609 0)
(-0.178638 0.472805 0)
(-0.242417 0.475969 0)
(-0.297451 0.443055 0)
(-0.342717 0.38361 0)
(-0.37862 0.304667 0)
(-0.406127 0.211174 0)
(-0.426064 0.106657 0)
(-0.438624 -0.0060122 0)
(-0.443046 -0.123791 0)
(-0.43742 -0.242509 0)
(-0.418711 -0.355782 0)
(-0.383229 -0.453855 0)
(-0.327792 -0.522697 0)
(-0.251658 -0.544054 0)
(-0.159699 -0.497515 0)
(-0.0693628 -0.365956 0)
(-0.0139125 -0.145607 0)
(-0.0116941 0.153267 0)
(-0.0548624 0.366395 0)
(-0.122401 0.489036 0)
(-0.190215 0.537953 0)
(-0.247551 0.532605 0)
(-0.292444 0.489278 0)
(-0.32604 0.419917 0)
(-0.35073 0.332553 0)
(-0.369136 0.232205 0)
(-0.383381 0.121853 0)
(-0.394622 0.00338998 0)
(-0.402682 -0.121427 0)
(-0.405738 -0.249886 0)
(-0.400106 -0.37694 0)
(-0.380368 -0.493455 0)
(-0.340272 -0.584285 0)
(-0.274758 -0.626922 0)
(-0.184269 -0.592324 0)
(-0.0853857 -0.450747 0)
(-0.0186275 -0.186284 0)
(-0.0157676 0.185784 0)
(-0.0667225 0.429731 0)
(-0.137422 0.557068 0)
(-0.199182 0.596809 0)
(-0.242635 0.577665 0)
(-0.269317 0.521145 0)
(-0.283615 0.441536 0)
(-0.290451 0.347477 0)
(-0.294326 0.243611 0)
(-0.298754 0.131993 0)
(-0.305954 0.0132041 0)
(-0.316577 -0.112676 0)
(-0.329311 -0.244982 0)
(-0.340379 -0.38095 0)
(-0.343139 -0.513479 0)
(-0.328265 -0.628001 0)
(-0.285185 -0.698964 0)
(-0.206938 -0.68779 0)
(-0.10507 -0.546856 0)
(-0.025568 -0.237676 0)
(-0.0229417 0.22763 0)
(-0.0846222 0.500117 0)
(-0.154639 0.621262 0)
(-0.201003 0.641446 0)
(-0.219283 0.601942 0)
(-0.217027 0.529728 0)
(-0.202947 0.44064 0)
(-0.184717 0.34299 0)
(-0.168518 0.240345 0)
(-0.158951 0.133405 0)
(-0.159102 0.0212201 0)
(-0.170503 -0.0979655 0)
(-0.192778 -0.225846 0)
(-0.222919 -0.36272 0)
(-0.254243 -0.505089 0)
(-0.275383 -0.641517 0)
(-0.270107 -0.746395 0)
(-0.221138 -0.772976 0)
(-0.128168 -0.651075 0)
(-0.035843 -0.303251 0)
(-0.0351628 0.284983 0)
(-0.11017 0.576556 0)
(-0.168974 0.672306 0)
(-0.183072 0.65898 0)
(-0.15993 0.592718 0)
(-0.115955 0.504296 0)
(-0.0644874 0.408929 0)
(-0.0152354 0.312951 0)
(0.0249316 0.21789 0)
(0.0512399 0.122721 0)
(0.0603903 0.0249839 0)
(0.0502504 -0.0786755 0)
(0.0200042 -0.192095 0)
(-0.0290974 -0.318818 0)
(-0.0921996 -0.460169 0)
(-0.158438 -0.610836 0)
(-0.208074 -0.750257 0)
(-0.212582 -0.82915 0)
(-0.150895 -0.754492 0)
(-0.0500733 -0.387591 0)
(-0.0530894 0.368887 0)
(-0.138647 0.651538 0)
(-0.160312 0.689947 0)
(-0.113888 0.628223 0)
(-0.0292701 0.533319 0)
(0.0677846 0.433643 0)
(0.161592 0.339713 0)
(0.242909 0.253692 0)
(0.306283 0.174192 0)
(0.348347 0.0983958 0)
(0.366684 0.0227677 0)
(0.359212 -0.0568865 0)
(0.324043 -0.145587 0)
(0.259941 -0.249258 0)
(0.167816 -0.373997 0)
(0.0540141 -0.522851 0)
(-0.0640366 -0.686845 0)
(-0.151404 -0.826256 0)
(-0.158715 -0.836964 0)
(-0.0648927 -0.49716 0)
(-0.0662874 0.492411 0)
(-0.139663 0.696511 0)
(-0.0683888 0.633088 0)
(0.0773284 0.517956 0)
(0.238112 0.406349 0)
(0.388129 0.310978 0)
(0.516942 0.232609 0)
(0.620464 0.167853 0)
(0.697542 0.112521 0)
(0.747967 0.0627111 0)
(0.771318 0.0147877 0)
(0.766366 -0.0350451 0)
(0.730724 -0.0913575 0)
(0.660761 -0.160317 0)
(0.552229 -0.250466 0)
(0.402783 -0.372322 0)
(0.217653 -0.533284 0)
(0.0219426 -0.720801 0)
(-0.109466 -0.852663 0)
(-0.0603403 -0.628942 0)
(0.00531988 0.597646 0)
(0.0183456 0.625379 0)
(0.263911 0.452843 0)
(0.528877 0.316252 0)
(0.746032 0.221383 0)
(0.916665 0.155141 0)
(1.04813 0.108309 0)
(1.14608 0.0740355 0)
(1.21517 0.0474225 0)
(1.25873 0.0251026 0)
(1.27846 0.00458858 0)
(1.27434 -0.0163364 0)
(1.24438 -0.0402993 0)
(1.18402 -0.0711882 0)
(1.08542 -0.115637 0)
(0.936968 -0.185264 0)
(0.722485 -0.298724 0)
(0.427893 -0.477967 0)
(0.121145 -0.704161 0)
(0.0554109 -0.684311 0)
(0.647817 0.316796 0)
(0.847373 0.278544 0)
(1.19076 0.170152 0)
(1.44767 0.101087 0)
(1.60502 0.0612943 0)
(1.70621 0.0377744 0)
(1.77473 0.0235333 0)
(1.82111 0.0145373 0)
(1.8513 0.00840617 0)
(1.86878 0.00376609 0)
(1.87534 -0.000219346 0)
(1.8714 -0.00415991 0)
(1.85612 -0.00874764 0)
(1.82692 -0.0150519 0)
(1.77828 -0.0251919 0)
(1.6992 -0.0437161 0)
(1.56443 -0.0803268 0)
(1.31673 -0.153704 0)
(0.940758 -0.279802 0)
(0.692216 -0.332671 0)
)
;

boundaryField
{
    movingWall
    {
        type            fixedValue;
        value           uniform (2.2 0 0);
    }
    fixedWalls
    {
        type            noSlip;
    }
    frontAndBack
    {
        type            empty;
    }
}


// ************************************************************************* //
